 Entering Gaussian System, Link 0=g16
 Initial command:
 /apps/gaussian/g16c01/g16/l1.exe "/jobfs/145005564.gadi-pbs/Gau-943282.inp" -scrdir="/jobfs/145005564.gadi-pbs/"
 Entering Link 1 = /apps/gaussian/g16c01/g16/l1.exe PID=    943283.
  
 Copyright (c) 1988-2019, Gaussian, Inc.  All Rights Reserved.
  
 This is part of the Gaussian(R) 16 program.  It is based on
 the Gaussian(R) 09 system (copyright 2009, Gaussian, Inc.),
 the Gaussian(R) 03 system (copyright 2003, Gaussian, Inc.),
 the Gaussian(R) 98 system (copyright 1998, Gaussian, Inc.),
 the Gaussian(R) 94 system (copyright 1995, Gaussian, Inc.),
 the Gaussian 92(TM) system (copyright 1992, Gaussian, Inc.),
 the Gaussian 90(TM) system (copyright 1990, Gaussian, Inc.),
 the Gaussian 88(TM) system (copyright 1988, Gaussian, Inc.),
 the Gaussian 86(TM) system (copyright 1986, Carnegie Mellon
 University), and the Gaussian 82(TM) system (copyright 1983,
 Carnegie Mellon University). Gaussian is a federally registered
 trademark of Gaussian, Inc.
  
 This software contains proprietary and confidential information,
 including trade secrets, belonging to Gaussian, Inc.
  
 This software is provided under written license and may be
 used, copied, transmitted, or stored only in accord with that
 written license.
  
 The following legend is applicable only to US Government
 contracts under FAR:
  
                    RESTRICTED RIGHTS LEGEND
  
 Use, reproduction and disclosure by the US Government is
 subject to restrictions as set forth in subparagraphs (a)
 and (c) of the Commercial Computer Software - Restricted
 Rights clause in FAR 52.227-19.
  
 Gaussian, Inc.
 340 Quinnipiac St., Bldg. 40, Wallingford CT 06492
  
  
 ---------------------------------------------------------------
 Warning -- This program may not be used in any manner that
 competes with the business of Gaussian, Inc. or will provide
 assistance to any competitor of Gaussian, Inc.  The licensee
 of this program is prohibited from giving any competitor of
 Gaussian, Inc. access to this program.  By using this program,
 the user acknowledges that Gaussian, Inc. is engaged in the
 business of creating and licensing software in the field of
 computational chemistry and represents and warrants to the
 licensee that it is not a competitor of Gaussian, Inc. and that
 it will not use this program in any manner prohibited above.
 ---------------------------------------------------------------
  

 Cite this work as:
 Gaussian 16, Revision C.01,
 M. J. Frisch, G. W. Trucks, H. B. Schlegel, G. E. Scuseria, 
 M. A. Robb, J. R. Cheeseman, G. Scalmani, V. Barone, 
 G. A. Petersson, H. Nakatsuji, X. Li, M. Caricato, A. V. Marenich, 
 J. Bloino, B. G. Janesko, R. Gomperts, B. Mennucci, H. P. Hratchian, 
 J. V. Ortiz, A. F. Izmaylov, J. L. Sonnenberg, D. Williams-Young, 
 F. Ding, F. Lipparini, F. Egidi, J. Goings, B. Peng, A. Petrone, 
 T. Henderson, D. Ranasinghe, V. G. Zakrzewski, J. Gao, N. Rega, 
 G. Zheng, W. Liang, M. Hada, M. Ehara, K. Toyota, R. Fukuda, 
 J. Hasegawa, M. Ishida, T. Nakajima, Y. Honda, O. Kitao, H. Nakai, 
 T. Vreven, K. Throssell, J. A. Montgomery, Jr., J. E. Peralta, 
 F. Ogliaro, M. J. Bearpark, J. J. Heyd, E. N. Brothers, K. N. Kudin, 
 V. N. Staroverov, T. A. Keith, R. Kobayashi, J. Normand, 
 K. Raghavachari, A. P. Rendell, J. C. Burant, S. S. Iyengar, 
 J. Tomasi, M. Cossi, J. M. Millam, M. Klene, C. Adamo, R. Cammi, 
 J. W. Ochterski, R. L. Martin, K. Morokuma, O. Farkas, 
 J. B. Foresman, and D. J. Fox, Gaussian, Inc., Wallingford CT, 2019.
 
 ******************************************
 Gaussian 16:  ES64L-G16RevC.01  3-Jul-2019
                10-Jul-2025 
 ******************************************
 %chk=Cl3F1_oct_M05-2x.chk
 %mem=20GB
 %nprocshared=20
 Will use up to   20 processors via shared memory.
 -------------------------------------------
 #P M052X/6-31G* scrf(SMD,solvent=n-octanol)
 -------------------------------------------
 1/38=1,172=1/1;
 2/12=2,17=6,18=5,40=1/2;
 3/5=1,6=6,7=1,11=2,25=1,30=1,70=32201,72=25,74=-38/1,2,3;
 4//1;
 5/5=2,38=5,53=25/2;
 6/7=2,8=2,9=2,10=2,28=1/1;
 99/5=1,9=1/99;
 Leave Link    1 at Thu Jul 10 14:00:35 2025, MaxMem=  2684354560 cpu:               2.4 elap:               0.2
 (Enter /apps/gaussian/g16c01/g16/l101.exe)
 ----------------
 Cl3F1_oct_M05-2x
 ----------------
 Symbolic Z-matrix:
 Charge =  0 Multiplicity = 1
 C                     0.50902   0.07927   0.00006 
 C                    -0.65874  -0.56456  -0.00005 
 Cl                    0.63948   1.80081  -0.00006 
 Cl                    1.99692  -0.80809   0.00034 
 F                    -0.71266  -1.89155   0.00004 
 Cl                   -2.20626   0.17997  -0.00029 
 
 ITRead=  0  0  0  0  0  0
 MicOpt= -1 -1 -1 -1 -1 -1
 NAtoms=      6 NQM=        6 NQMF=       0 NMMI=      0 NMMIF=      0
                NMic=       0 NMicF=      0.
                    Isotopes and Nuclear Properties:
 (Nuclear quadrupole moments (NQMom) in fm**2, nuclear magnetic moments (NMagM)
  in nuclear magnetons)

  Atom         1           2           3           4           5           6
 IAtWgt=          12          12          35          35          19          35
 AtmWgt=  12.0000000  12.0000000  34.9688527  34.9688527  18.9984033  34.9688527
 NucSpn=           0           0           3           3           1           3
 AtZEff=  -0.0000000  -0.0000000  -0.0000000  -0.0000000  -0.0000000  -0.0000000
 NQMom=    0.0000000   0.0000000  -8.1650000  -8.1650000   0.0000000  -8.1650000
 NMagM=    0.0000000   0.0000000   0.8218740   0.8218740   2.6288670   0.8218740
 AtZNuc=   6.0000000   6.0000000  17.0000000  17.0000000   9.0000000  17.0000000
 Leave Link  101 at Thu Jul 10 14:00:36 2025, MaxMem=  2684354560 cpu:               3.1 elap:               0.2
 (Enter /apps/gaussian/g16c01/g16/l202.exe)
                          Input orientation:                          
 ---------------------------------------------------------------------
 Center     Atomic      Atomic             Coordinates (Angstroms)
 Number     Number       Type             X           Y           Z
 ---------------------------------------------------------------------
      1          6           0        0.509020    0.079272    0.000059
      2          6           0       -0.658744   -0.564563   -0.000047
      3         17           0        0.639479    1.800805   -0.000063
      4         17           0        1.996918   -0.808087    0.000335
      5          9           0       -0.712660   -1.891548    0.000035
      6         17           0       -2.206262    0.179969   -0.000294
 ---------------------------------------------------------------------
                    Distance matrix (angstroms):
                    1          2          3          4          5
     1  C    0.000000
     2  C    1.333490   0.000000
     3  Cl   1.726469   2.698212   0.000000
     4  Cl   1.732411   2.666804   2.940911   0.000000
     5  F    2.318757   1.328080   3.932143   2.918167   0.000000
     6  Cl   2.717149   1.717306   3.274958   4.317751   2.553826
                    6
     6  Cl   0.000000
 Stoichiometry    C2Cl3F
 Framework group  C1[X(C2Cl3F)]
 Deg. of freedom    12
 Full point group                 C1      NOp   1
 Largest Abelian subgroup         C1      NOp   1
 Largest concise Abelian subgroup C1      NOp   1
                         Standard orientation:                         
 ---------------------------------------------------------------------
 Center     Atomic      Atomic             Coordinates (Angstroms)
 Number     Number       Type             X           Y           Z
 ---------------------------------------------------------------------
      1          6           0        0.509020    0.079272    0.000059
      2          6           0       -0.658744   -0.564563   -0.000047
      3         17           0        0.639478    1.800805   -0.000063
      4         17           0        1.996918   -0.808087    0.000335
      5          9           0       -0.712660   -1.891548    0.000035
      6         17           0       -2.206262    0.179968   -0.000294
 ---------------------------------------------------------------------
 Rotational constants (GHZ):           2.4153348           1.4780379           0.9169316
 Leave Link  202 at Thu Jul 10 14:00:36 2025, MaxMem=  2684354560 cpu:               1.1 elap:               0.1
 (Enter /apps/gaussian/g16c01/g16/l301.exe)
 Standard basis: 6-31G(d) (6D, 7F)
 Ernie: Thresh=  0.10000D-02 Tol=  0.10000D-05 Strict=F.
 There are   102 symmetry adapted cartesian basis functions of A   symmetry.
 There are   102 symmetry adapted basis functions of A   symmetry.
   102 basis functions,   240 primitive gaussians,   102 cartesian basis functions
    36 alpha electrons       36 beta electrons
       nuclear repulsion energy       416.2434534844 Hartrees.
 IExCor= 3428 DFT=T Ex+Corr=M052X ExCW=0 ScaHFX=  0.560000
 ScaDFX=  0.440000  0.440000  1.000000  1.000000 ScalE2=  1.000000  1.000000
 IRadAn=      5 IRanWt=     -1 IRanGd=            0 ICorTp=0 IEmpDi=  4
 NAtoms=    6 NActive=    6 NUniq=    6 SFac= 1.00D+00 NAtFMM=   60 NAOKFM=F Big=F
 Integral buffers will be    131072 words long.
 Raffenetti 2 integral format.
 Two-electron integral symmetry is turned on.
 ------------------------------------------------------------------------------
 Polarizable Continuum Model (PCM)
 =================================
 Model                : PCM.
 Atomic radii         : SMD-Coulomb.
 Polarization charges : Total charges.
 Charge compensation  : None.
 Solution method      : On-the-fly selection.
 Cavity type          : VdW (van der Waals Surface) (Alpha=1.000).
 Cavity algorithm     : GePol (No added spheres)
                        Default sphere list used, NSphG=    6.
                        Lebedev-Laikov grids with approx.  5.0 points / Ang**2.
                        Smoothing algorithm: York/Karplus (Gamma=1.0000).
                        Polarization charges: spherical gaussians, with
                                              point-specific exponents (IZeta= 3).
                        Self-potential: point-specific (ISelfS= 7).
                        Self-field    : sphere-specific E.n sum rule (ISelfD= 2).
 Solvent              : n-Octanol, Eps=   9.862900 Eps(inf)=   2.043470
 ------------------------------------------------------------------------------
 Spheres list:
 ISph  on   Nord     Re0    Alpha      Xe            Ye            Ze
    1   C      1    1.8500  1.000      0.509020      0.079272      0.000059
    2   C      2    1.8500  1.000     -0.658744     -0.564563     -0.000047
    3  Cl      3    2.3800  1.000      0.639478      1.800805     -0.000063
    4  Cl      4    2.3800  1.000      1.996918     -0.808087      0.000335
    5   F      5    1.7300  1.000     -0.712660     -1.891548      0.000035
    6  Cl      6    2.3800  1.000     -2.206262      0.179968     -0.000294
 ------------------------------------------------------------------------------
 GePol: Number of generator spheres                  =       6
 GePol: Total number of spheres                      =       6
 GePol: Number of exposed spheres                    =       6 (100.00%)
 GePol: Number of points                             =    1086
 GePol: Average weight of points                     =       0.15
 GePol: Minimum weight of points                     =   0.21D-06
 GePol: Maximum weight of points                     =    0.21501
 GePol: Number of points with low weight             =      20
 GePol: Fraction of low-weight points (<1% of avg)   =       1.84%
 GePol: Cavity surface area                          =    167.247 Ang**2
 GePol: Cavity volume                                =    163.772 Ang**3
 ------------------------------------------------------------------------------
 Atomic radii for non-electrostatic terms: SMD-CDS.
 ------------------------------------------------------------------------------
 PCM non-electrostatic energy =        -0.0017212492 Hartrees.
 Nuclear repulsion after PCM non-electrostatic terms =      416.2417322352 Hartrees.
 Leave Link  301 at Thu Jul 10 14:00:36 2025, MaxMem=  2684354560 cpu:               1.5 elap:               0.1
 (Enter /apps/gaussian/g16c01/g16/l302.exe)
 NPDir=0 NMtPBC=     1 NCelOv=     1 NCel=       1 NClECP=     1 NCelD=      1
         NCelK=      1 NCelE2=     1 NClLst=     1 CellRange=     0.0.
 One-electron integrals computed using PRISM.
 One-electron integral symmetry used in STVInt
 NBasis=   102 RedAO= T EigKep=  3.40D-03  NBF=   102
 NBsUse=   102 1.00D-06 EigRej= -1.00D+00 NBFU=   102
 Precomputing XC quadrature grid using
 IXCGrd= 4 IRadAn=           5 IRanWt=          -1 IRanGd=           0 AccXCQ= 0.00D+00.
 Generated NRdTot=       0 NPtTot=           0 NUsed=           0 NTot=          32
 NSgBfM=   101   101   101   101   101 MxSgAt=     6 MxSgA2=     6.
 Leave Link  302 at Thu Jul 10 14:00:36 2025, MaxMem=  2684354560 cpu:               6.6 elap:               0.4
 (Enter /apps/gaussian/g16c01/g16/l303.exe)
 DipDrv:  MaxL=1.
 Leave Link  303 at Thu Jul 10 14:00:36 2025, MaxMem=  2684354560 cpu:               1.7 elap:               0.1
 (Enter /apps/gaussian/g16c01/g16/l401.exe)
 ExpMin= 1.43D-01 ExpMax= 2.52D+04 ExpMxC= 3.78D+03 IAcc=3 IRadAn=         5 AccDes= 0.00D+00
 Harris functional with IExCor= 1009 and IRadAn=       5 diagonalized for initial guess.
 HarFok:  IExCor= 1009 AccDes= 0.00D+00 IRadAn=         5 IDoV= 1 UseB2=F ITyADJ=14
 ICtDFT=  3500011 ScaDFX=  1.000000  1.000000  1.000000  1.000000
 FoFCou: FMM=F IPFlag=           0 FMFlag=      100000 FMFlg1=           0
         NFxFlg=           0 DoJE=T BraDBF=F KetDBF=T FulRan=T
         wScrn=  0.000000 ICntrl=       500 IOpCl=  0 I1Cent=   200000004 NGrid=           0
         NMat0=    1 NMatS0=      1 NMatT0=    0 NMatD0=    1 NMtDS0=    0 NMtDT0=    0
 Petite list used in FoFCou.
 Harris En= -1555.60208308882    
 JPrj=0 DoOrth=F DoCkMO=F.
 Leave Link  401 at Thu Jul 10 14:00:37 2025, MaxMem=  2684354560 cpu:              17.1 elap:               1.1
 (Enter /apps/gaussian/g16c01/g16/l502.exe)
 Keep R1 ints in memory in canonical form, NReq=32346002.
 FoFCou: FMM=F IPFlag=           0 FMFlag=           0 FMFlg1=           0
         NFxFlg=           0 DoJE=F BraDBF=F KetDBF=F FulRan=T
         wScrn=  0.000000 ICntrl=       600 IOpCl=  0 I1Cent=           0 NGrid=           0
         NMat0=    1 NMatS0=   5253 NMatT0=    0 NMatD0=    1 NMtDS0=    0 NMtDT0=    0
 Symmetry not used in FoFCou.
 Two-electron integral symmetry not used.
 Closed shell SCF:
 Using DIIS extrapolation, IDIIS=  1040.
 NGot=  2684354560 LenX=  2670530862 LenY=  2670520017
 Requested convergence on RMS density matrix=1.00D-08 within 128 cycles.
 Requested convergence on MAX density matrix=1.00D-06.
 Requested convergence on             energy=1.00D-06.
 No special actions if energy rises.

 Cycle   1  Pass 1  IDiag  1:
 Inv3:  Mode=1 IEnd=     3538188.
 Iteration    1 A*A^-1 deviation from unit magnitude is 3.33D-15 for   1068.
 Iteration    1 A*A^-1 deviation from orthogonality  is 1.47D-15 for    840    381.
 Iteration    1 A^-1*A deviation from unit magnitude is 3.11D-15 for   1059.
 Iteration    1 A^-1*A deviation from orthogonality  is 1.55D-15 for   1086   1085.
 E= -1556.46373415546    
 DIIS: error= 2.77D-02 at cycle   1 NSaved=   1.
 NSaved= 1 IEnMin= 1 EnMin= -1556.46373415546     IErMin= 1 ErrMin= 2.77D-02
 ErrMax= 2.77D-02  0.00D+00 EMaxC= 1.00D-01 BMatC= 7.91D-02 BMatP= 7.91D-02
 IDIUse=3 WtCom= 7.23D-01 WtEn= 2.77D-01
 Coeff-Com:  0.100D+01
 Coeff-En:   0.100D+01
 Coeff:      0.100D+01
 Gap=     0.355 Goal=   None    Shift=    0.000
 GapD=    0.355 DampG=1.000 DampE=0.500 DampFc=0.5000 IDamp=-1.
 Damping current iteration by 5.00D-01
 RMSDP=3.65D-03 MaxDP=8.30D-02              OVMax= 6.17D-02

 Cycle   2  Pass 1  IDiag  1:
 E= -1556.48331953691     Delta-E=       -0.019585381446 Rises=F Damp=T
 DIIS: error= 1.08D-02 at cycle   2 NSaved=   2.
 NSaved= 2 IEnMin= 2 EnMin= -1556.48331953691     IErMin= 2 ErrMin= 1.08D-02
 ErrMax= 1.08D-02  0.00D+00 EMaxC= 1.00D-01 BMatC= 1.12D-02 BMatP= 7.91D-02
 IDIUse=3 WtCom= 8.92D-01 WtEn= 1.08D-01
 Coeff-Com: -0.321D+00 0.132D+01
 Coeff-En:   0.000D+00 0.100D+01
 Coeff:     -0.286D+00 0.129D+01
 Gap=     0.358 Goal=   None    Shift=    0.000
 RMSDP=1.22D-03 MaxDP=1.51D-02 DE=-1.96D-02 OVMax= 3.87D-02

 Cycle   3  Pass 1  IDiag  1:
 E= -1556.50049353838     Delta-E=       -0.017174001475 Rises=F Damp=F
 DIIS: error= 4.29D-03 at cycle   3 NSaved=   3.
 NSaved= 3 IEnMin= 3 EnMin= -1556.50049353838     IErMin= 3 ErrMin= 4.29D-03
 ErrMax= 4.29D-03  0.00D+00 EMaxC= 1.00D-01 BMatC= 2.32D-03 BMatP= 1.12D-02
 IDIUse=3 WtCom= 9.57D-01 WtEn= 4.29D-02
 Coeff-Com: -0.208D+00 0.489D+00 0.719D+00
 Coeff-En:   0.000D+00 0.000D+00 0.100D+01
 Coeff:     -0.199D+00 0.468D+00 0.731D+00
 Gap=     0.339 Goal=   None    Shift=    0.000
 RMSDP=4.96D-04 MaxDP=7.67D-03 DE=-1.72D-02 OVMax= 1.05D-02

 Cycle   4  Pass 1  IDiag  1:
 E= -1556.50228230456     Delta-E=       -0.001788766181 Rises=F Damp=F
 DIIS: error= 4.39D-04 at cycle   4 NSaved=   4.
 NSaved= 4 IEnMin= 4 EnMin= -1556.50228230456     IErMin= 4 ErrMin= 4.39D-04
 ErrMax= 4.39D-04  0.00D+00 EMaxC= 1.00D-01 BMatC= 6.26D-05 BMatP= 2.32D-03
 IDIUse=3 WtCom= 9.96D-01 WtEn= 4.39D-03
 Coeff-Com: -0.518D-01 0.105D+00 0.240D+00 0.707D+00
 Coeff-En:   0.000D+00 0.000D+00 0.000D+00 0.100D+01
 Coeff:     -0.516D-01 0.105D+00 0.239D+00 0.708D+00
 Gap=     0.339 Goal=   None    Shift=    0.000
 RMSDP=1.14D-04 MaxDP=1.69D-03 DE=-1.79D-03 OVMax= 2.43D-03

 Cycle   5  Pass 1  IDiag  1:
 E= -1556.50233532120     Delta-E=       -0.000053016641 Rises=F Damp=F
 DIIS: error= 2.20D-04 at cycle   5 NSaved=   5.
 NSaved= 5 IEnMin= 5 EnMin= -1556.50233532120     IErMin= 5 ErrMin= 2.20D-04
 ErrMax= 2.20D-04  0.00D+00 EMaxC= 1.00D-01 BMatC= 5.94D-06 BMatP= 6.26D-05
 IDIUse=3 WtCom= 9.98D-01 WtEn= 2.20D-03
 Coeff-Com: -0.104D-01 0.177D-01 0.642D-01 0.301D+00 0.628D+00
 Coeff-En:   0.000D+00 0.000D+00 0.000D+00 0.000D+00 0.100D+01
 Coeff:     -0.104D-01 0.177D-01 0.641D-01 0.300D+00 0.629D+00
 Gap=     0.339 Goal=   None    Shift=    0.000
 RMSDP=2.94D-05 MaxDP=8.32D-04 DE=-5.30D-05 OVMax= 1.12D-03

 Cycle   6  Pass 1  IDiag  1:
 E= -1556.50234075211     Delta-E=       -0.000005430908 Rises=F Damp=F
 DIIS: error= 8.08D-05 at cycle   6 NSaved=   6.
 NSaved= 6 IEnMin= 6 EnMin= -1556.50234075211     IErMin= 6 ErrMin= 8.08D-05
 ErrMax= 8.08D-05  0.00D+00 EMaxC= 1.00D-01 BMatC= 7.78D-07 BMatP= 5.94D-06
 IDIUse=1 WtCom= 1.00D+00 WtEn= 0.00D+00
 Coeff-Com:  0.666D-02-0.147D-01-0.218D-01-0.103D-01 0.262D+00 0.778D+00
 Coeff:      0.666D-02-0.147D-01-0.218D-01-0.103D-01 0.262D+00 0.778D+00
 Gap=     0.339 Goal=   None    Shift=    0.000
 RMSDP=1.17D-05 MaxDP=2.86D-04 DE=-5.43D-06 OVMax= 3.81D-04

 Cycle   7  Pass 1  IDiag  1:
 E= -1556.50234164740     Delta-E=       -0.000000895287 Rises=F Damp=F
 DIIS: error= 1.22D-05 at cycle   7 NSaved=   7.
 NSaved= 7 IEnMin= 7 EnMin= -1556.50234164740     IErMin= 7 ErrMin= 1.22D-05
 ErrMax= 1.22D-05  0.00D+00 EMaxC= 1.00D-01 BMatC= 1.64D-08 BMatP= 7.78D-07
 IDIUse=1 WtCom= 1.00D+00 WtEn= 0.00D+00
 Coeff-Com:  0.135D-02-0.281D-02-0.576D-02-0.134D-01 0.109D-01 0.142D+00
 Coeff-Com:  0.868D+00
 Coeff:      0.135D-02-0.281D-02-0.576D-02-0.134D-01 0.109D-01 0.142D+00
 Coeff:      0.868D+00
 Gap=     0.339 Goal=   None    Shift=    0.000
 RMSDP=2.13D-06 MaxDP=3.37D-05 DE=-8.95D-07 OVMax= 7.17D-05

 Cycle   8  Pass 1  IDiag  1:
 E= -1556.50234166689     Delta-E=       -0.000000019486 Rises=F Damp=F
 DIIS: error= 4.92D-06 at cycle   8 NSaved=   8.
 NSaved= 8 IEnMin= 8 EnMin= -1556.50234166689     IErMin= 8 ErrMin= 4.92D-06
 ErrMax= 4.92D-06  0.00D+00 EMaxC= 1.00D-01 BMatC= 4.57D-09 BMatP= 1.64D-08
 IDIUse=1 WtCom= 1.00D+00 WtEn= 0.00D+00
 Coeff-Com:  0.322D-03-0.625D-03-0.187D-02-0.671D-02-0.132D-01 0.172D-01
 Coeff-Com:  0.389D+00 0.616D+00
 Coeff:      0.322D-03-0.625D-03-0.187D-02-0.671D-02-0.132D-01 0.172D-01
 Coeff:      0.389D+00 0.616D+00
 Gap=     0.339 Goal=   None    Shift=    0.000
 RMSDP=9.13D-07 MaxDP=1.72D-05 DE=-1.95D-08 OVMax= 1.65D-05

 Cycle   9  Pass 1  IDiag  1:
 E= -1556.50234167098     Delta-E=       -0.000000004099 Rises=F Damp=F
 DIIS: error= 1.71D-06 at cycle   9 NSaved=   9.
 NSaved= 9 IEnMin= 9 EnMin= -1556.50234167098     IErMin= 9 ErrMin= 1.71D-06
 ErrMax= 1.71D-06  0.00D+00 EMaxC= 1.00D-01 BMatC= 2.89D-10 BMatP= 4.57D-09
 IDIUse=1 WtCom= 1.00D+00 WtEn= 0.00D+00
 Coeff-Com: -0.157D-03 0.341D-03 0.550D-03 0.838D-03-0.403D-02-0.144D-01
 Coeff-Com: -0.446D-01 0.170D+00 0.892D+00
 Coeff:     -0.157D-03 0.341D-03 0.550D-03 0.838D-03-0.403D-02-0.144D-01
 Coeff:     -0.446D-01 0.170D+00 0.892D+00
 Gap=     0.339 Goal=   None    Shift=    0.000
 RMSDP=2.60D-07 MaxDP=4.43D-06 DE=-4.10D-09 OVMax= 7.85D-06

 Cycle  10  Pass 1  IDiag  1:
 E= -1556.50234167131     Delta-E=       -0.000000000327 Rises=F Damp=F
 DIIS: error= 1.49D-07 at cycle  10 NSaved=  10.
 NSaved=10 IEnMin=10 EnMin= -1556.50234167131     IErMin=10 ErrMin= 1.49D-07
 ErrMax= 1.49D-07  0.00D+00 EMaxC= 1.00D-01 BMatC= 5.42D-12 BMatP= 2.89D-10
 IDIUse=1 WtCom= 1.00D+00 WtEn= 0.00D+00
 Coeff-Com: -0.354D-04 0.739D-04 0.158D-03 0.413D-03-0.280D-03-0.289D-02
 Coeff-Com: -0.239D-01 0.614D-02 0.163D+00 0.857D+00
 Coeff:     -0.354D-04 0.739D-04 0.158D-03 0.413D-03-0.280D-03-0.289D-02
 Coeff:     -0.239D-01 0.614D-02 0.163D+00 0.857D+00
 Gap=     0.339 Goal=   None    Shift=    0.000
 RMSDP=5.17D-08 MaxDP=1.10D-06 DE=-3.27D-10 OVMax= 9.67D-07

 Cycle  11  Pass 1  IDiag  1:
 E= -1556.50234167132     Delta-E=       -0.000000000008 Rises=F Damp=F
 DIIS: error= 4.41D-08 at cycle  11 NSaved=  11.
 NSaved=11 IEnMin=11 EnMin= -1556.50234167132     IErMin=11 ErrMin= 4.41D-08
 ErrMax= 4.41D-08  0.00D+00 EMaxC= 1.00D-01 BMatC= 4.53D-13 BMatP= 5.42D-12
 IDIUse=1 WtCom= 1.00D+00 WtEn= 0.00D+00
 Coeff-Com:  0.362D-05-0.842D-05-0.323D-05 0.374D-04 0.162D-03 0.450D-03
 Coeff-Com: -0.232D-02-0.110D-01-0.245D-01 0.178D+00 0.859D+00
 Coeff:      0.362D-05-0.842D-05-0.323D-05 0.374D-04 0.162D-03 0.450D-03
 Coeff:     -0.232D-02-0.110D-01-0.245D-01 0.178D+00 0.859D+00
 Gap=     0.339 Goal=   None    Shift=    0.000
 RMSDP=1.43D-08 MaxDP=3.81D-07 DE=-8.19D-12 OVMax= 2.61D-07

 Cycle  12  Pass 1  IDiag  1:
 E= -1556.50234167132     Delta-E=        0.000000000000 Rises=F Damp=F
 DIIS: error= 9.07D-09 at cycle  12 NSaved=  12.
 NSaved=12 IEnMin=11 EnMin= -1556.50234167132     IErMin=12 ErrMin= 9.07D-09
 ErrMax= 9.07D-09  0.00D+00 EMaxC= 1.00D-01 BMatC= 2.15D-14 BMatP= 4.53D-13
 IDIUse=1 WtCom= 1.00D+00 WtEn= 0.00D+00
 Coeff-Com:  0.237D-05-0.508D-05-0.784D-05-0.123D-04 0.322D-04 0.249D-03
 Coeff-Com:  0.582D-03-0.253D-02-0.125D-01-0.872D-03 0.156D+00 0.859D+00
 Coeff:      0.237D-05-0.508D-05-0.784D-05-0.123D-04 0.322D-04 0.249D-03
 Coeff:      0.582D-03-0.253D-02-0.125D-01-0.872D-03 0.156D+00 0.859D+00
 Gap=     0.339 Goal=   None    Shift=    0.000
 RMSDP=3.28D-09 MaxDP=7.38D-08 DE= 0.00D+00 OVMax= 6.60D-08

 Error on total polarization charges =  0.00417
 SCF Done:  E(RM052X) =  -1556.50234167     A.U. after   12 cycles
            NFock= 12  Conv=0.33D-08     -V/T= 2.0036
 KE= 1.550953510325D+03 PE=-4.526566613904D+03 EE= 1.002869029672D+03
 SMD-CDS (non-electrostatic) energy       (kcal/mol) =      -1.08
 (included in total energy above)
 Leave Link  502 at Thu Jul 10 14:00:42 2025, MaxMem=  2684354560 cpu:              80.6 elap:               4.6
 (Enter /apps/gaussian/g16c01/g16/l601.exe)
 Copying SCF densities to generalized density rwf, IOpCl= 0 IROHF=0.

 **********************************************************************

            Population analysis using the SCF Density.

 **********************************************************************

 Orbital symmetries:
       Occupied  (A) (A) (A) (A) (A) (A) (A) (A) (A) (A) (A) (A)
                 (A) (A) (A) (A) (A) (A) (A) (A) (A) (A) (A) (A)
                 (A) (A) (A) (A) (A) (A) (A) (A) (A) (A) (A) (A)
       Virtual   (A) (A) (A) (A) (A) (A) (A) (A) (A) (A) (A) (A)
                 (A) (A) (A) (A) (A) (A) (A) (A) (A) (A) (A) (A)
                 (A) (A) (A) (A) (A) (A) (A) (A) (A) (A) (A) (A)
                 (A) (A) (A) (A) (A) (A) (A) (A) (A) (A) (A) (A)
                 (A) (A) (A) (A) (A) (A) (A) (A) (A) (A) (A) (A)
                 (A) (A) (A) (A) (A) (A)
 The electronic state is 1-A.
 Alpha  occ. eigenvalues -- -102.81046-102.80713-102.80444 -25.36175 -10.75630
 Alpha  occ. eigenvalues --  -10.71883  -9.85611  -9.85191  -9.84921  -7.58245
 Alpha  occ. eigenvalues --   -7.57841  -7.57573  -7.57571  -7.57560  -7.57143
 Alpha  occ. eigenvalues --   -7.57143  -7.56873  -7.56871  -1.41075  -1.05848
 Alpha  occ. eigenvalues --   -1.00265  -0.95738  -0.85468  -0.71026  -0.63187
 Alpha  occ. eigenvalues --   -0.61679  -0.61315  -0.53471  -0.50980  -0.49669
 Alpha  occ. eigenvalues --   -0.44038  -0.43269  -0.42485  -0.41307  -0.39170
 Alpha  occ. eigenvalues --   -0.31629
 Alpha virt. eigenvalues --    0.02293   0.03314   0.04396   0.10158   0.23165
 Alpha virt. eigenvalues --    0.30982   0.33617   0.36791   0.41581   0.44126
 Alpha virt. eigenvalues --    0.44260   0.45471   0.46687   0.47741   0.49228
 Alpha virt. eigenvalues --    0.52206   0.53807   0.54398   0.58848   0.58912
 Alpha virt. eigenvalues --    0.65245   0.67914   0.79678   0.82928   0.83745
 Alpha virt. eigenvalues --    0.87241   0.88396   0.90221   0.91038   0.91270
 Alpha virt. eigenvalues --    0.92342   0.92407   0.99157   1.01728   1.05334
 Alpha virt. eigenvalues --    1.06159   1.10352   1.15336   1.17684   1.19180
 Alpha virt. eigenvalues --    1.30495   1.33372   1.39076   1.45511   1.49955
 Alpha virt. eigenvalues --    1.56821   1.82280   1.83788   1.88132   1.88193
 Alpha virt. eigenvalues --    1.96005   2.03446   2.06280   2.22383   2.29868
 Alpha virt. eigenvalues --    2.37065   2.54542   2.67762   2.85964   3.08784
 Alpha virt. eigenvalues --    4.00472   4.15223   4.28655   4.34838   4.42538
 Alpha virt. eigenvalues --    4.73737
          Condensed to atoms (all electrons):
               1          2          3          4          5          6
     1  C    5.575288   0.423386   0.246619   0.231410  -0.062086  -0.096927
     2  C    0.423386   4.868833  -0.077951  -0.079182   0.295500   0.297768
     3  Cl   0.246619  -0.077951  16.789742  -0.062965   0.001173   0.003618
     4  Cl   0.231410  -0.079182  -0.062965  16.813011   0.005532   0.003238
     5  F   -0.062086   0.295500   0.001173   0.005532   9.035695  -0.042664
     6  Cl  -0.096927   0.297768   0.003618   0.003238  -0.042664  16.744495
 Mulliken charges:
               1
     1  C   -0.317690
     2  C    0.271647
     3  Cl   0.099764
     4  Cl   0.088957
     5  F   -0.233150
     6  Cl   0.090472
 Sum of Mulliken charges =  -0.00000
 Mulliken charges with hydrogens summed into heavy atoms:
               1
     1  C   -0.317690
     2  C    0.271647
     3  Cl   0.099764
     4  Cl   0.088957
     5  F   -0.233150
     6  Cl   0.090472
 Electronic spatial extent (au):  <R**2>=           1071.9135
 Charge=             -0.0000 electrons
 Dipole moment (field-independent basis, Debye):
    X=             -0.4445    Y=              0.3235    Z=             -0.0001  Tot=              0.5498
 Quadrupole moment (field-independent basis, Debye-Ang):
   XX=            -51.8895   YY=            -53.3122   ZZ=            -53.3662
   XY=             -0.8971   XZ=              0.0003   YZ=             -0.0001
 Traceless Quadrupole moment (field-independent basis, Debye-Ang):
   XX=              0.9665   YY=             -0.4562   ZZ=             -0.5103
   XY=             -0.8971   XZ=              0.0003   YZ=             -0.0001
 Octapole moment (field-independent basis, Debye-Ang**2):
  XXX=             -7.4154  YYY=             -1.8369  ZZZ=              0.0001  XYY=              0.8905
  XXY=             -3.2214  XXZ=             -0.0001  XZZ=             -1.9153  YZZ=             -3.9059
  YYZ=             -0.0004  XYZ=             -0.0002
 Hexadecapole moment (field-independent basis, Debye-Ang**3):
 XXXX=           -733.2214 YYYY=           -433.9483 ZZZZ=            -55.1273 XXXY=            -15.1156
 XXXZ=             -0.0393 YYYX=              7.3317 YYYZ=              0.0146 ZZZX=             -0.0493
 ZZZY=              0.0171 XXYY=           -199.5309 XXZZ=           -141.8422 YYZZ=            -86.1567
 XXYZ=              0.0018 YYXZ=             -0.0150 ZZXY=              2.8246
 N-N= 4.162417322352D+02 E-N=-4.526566613430D+03  KE= 1.550953510325D+03
 No NMR shielding tensors so no spin-rotation constants.
 Leave Link  601 at Thu Jul 10 14:00:42 2025, MaxMem=  2684354560 cpu:               4.7 elap:               0.3
 (Enter /apps/gaussian/g16c01/g16/l9999.exe)
 Unable to Open any file for archive entry.
 1\1\GINC-GADI-CPU-CLX-0143\SP\RM052X\6-31G(d)\C2Cl3F1\YR9300\10-Jul-20
 25\0\\#P M052X/6-31G* scrf(SMD,solvent=n-octanol)\\Cl3F1_oct_M05-2x\\0
 ,1\C,0,0.50902,0.079272,0.000059\C,0,-0.658744,-0.564563,-0.000047\Cl,
 0,0.639479,1.800805,-0.000063\Cl,0,1.996918,-0.808087,0.000335\F,0,-0.
 71266,-1.891548,0.000035\Cl,0,-2.206262,0.179969,-0.000294\\Version=ES
 64L-G16RevC.01\State=1-A\HF=-1556.5023417\RMSD=3.275e-09\Dipole=-0.174
 8721,0.1272835,-0.0000299\Quadrupole=0.7185605,-0.3391985,-0.379362,-0
 .6669886,0.0001893,-0.0001056\PG=C01 [X(C2Cl3F1)]\\@
 The archive entry for this job was punched.


 PERICLES, SOPHOCLES,
 PELOPONESIAN WAR,
 FRENCH VERBS, LATIN VERBS
 H2SO4.
 Job cpu time:       0 days  0 hours  2 minutes  0.3 seconds.
 Elapsed time:       0 days  0 hours  0 minutes  7.2 seconds.
 File lengths (MBytes):  RWF=     27 Int=      0 D2E=      0 Chk=      2 Scr=      1
 Normal termination of Gaussian 16 at Thu Jul 10 14:00:43 2025.
