 Entering Gaussian System, Link 0=g16
 Initial command:
 /apps/gaussian/g16c01/g16/l1.exe "/jobfs/145008527.gadi-pbs/Gau-154384.inp" -scrdir="/jobfs/145008527.gadi-pbs/"
 Entering Link 1 = /apps/gaussian/g16c01/g16/l1.exe PID=    154385.
  
 Copyright (c) 1988-2019, Gaussian, Inc.  All Rights Reserved.
  
 This is part of the Gaussian(R) 16 program.  It is based on
 the Gaussian(R) 09 system (copyright 2009, Gaussian, Inc.),
 the Gaussian(R) 03 system (copyright 2003, Gaussian, Inc.),
 the Gaussian(R) 98 system (copyright 1998, Gaussian, Inc.),
 the Gaussian(R) 94 system (copyright 1995, Gaussian, Inc.),
 the Gaussian 92(TM) system (copyright 1992, Gaussian, Inc.),
 the Gaussian 90(TM) system (copyright 1990, Gaussian, Inc.),
 the Gaussian 88(TM) system (copyright 1988, Gaussian, Inc.),
 the Gaussian 86(TM) system (copyright 1986, Carnegie Mellon
 University), and the Gaussian 82(TM) system (copyright 1983,
 Carnegie Mellon University). Gaussian is a federally registered
 trademark of Gaussian, Inc.
  
 This software contains proprietary and confidential information,
 including trade secrets, belonging to Gaussian, Inc.
  
 This software is provided under written license and may be
 used, copied, transmitted, or stored only in accord with that
 written license.
  
 The following legend is applicable only to US Government
 contracts under FAR:
  
                    RESTRICTED RIGHTS LEGEND
  
 Use, reproduction and disclosure by the US Government is
 subject to restrictions as set forth in subparagraphs (a)
 and (c) of the Commercial Computer Software - Restricted
 Rights clause in FAR 52.227-19.
  
 Gaussian, Inc.
 340 Quinnipiac St., Bldg. 40, Wallingford CT 06492
  
  
 ---------------------------------------------------------------
 Warning -- This program may not be used in any manner that
 competes with the business of Gaussian, Inc. or will provide
 assistance to any competitor of Gaussian, Inc.  The licensee
 of this program is prohibited from giving any competitor of
 Gaussian, Inc. access to this program.  By using this program,
 the user acknowledges that Gaussian, Inc. is engaged in the
 business of creating and licensing software in the field of
 computational chemistry and represents and warrants to the
 licensee that it is not a competitor of Gaussian, Inc. and that
 it will not use this program in any manner prohibited above.
 ---------------------------------------------------------------
  

 Cite this work as:
 Gaussian 16, Revision C.01,
 M. J. Frisch, G. W. Trucks, H. B. Schlegel, G. E. Scuseria, 
 M. A. Robb, J. R. Cheeseman, G. Scalmani, V. Barone, 
 G. A. Petersson, H. Nakatsuji, X. Li, M. Caricato, A. V. Marenich, 
 J. Bloino, B. G. Janesko, R. Gomperts, B. Mennucci, H. P. Hratchian, 
 J. V. Ortiz, A. F. Izmaylov, J. L. Sonnenberg, D. Williams-Young, 
 F. Ding, F. Lipparini, F. Egidi, J. Goings, B. Peng, A. Petrone, 
 T. Henderson, D. Ranasinghe, V. G. Zakrzewski, J. Gao, N. Rega, 
 G. Zheng, W. Liang, M. Hada, M. Ehara, K. Toyota, R. Fukuda, 
 J. Hasegawa, M. Ishida, T. Nakajima, Y. Honda, O. Kitao, H. Nakai, 
 T. Vreven, K. Throssell, J. A. Montgomery, Jr., J. E. Peralta, 
 F. Ogliaro, M. J. Bearpark, J. J. Heyd, E. N. Brothers, K. N. Kudin, 
 V. N. Staroverov, T. A. Keith, R. Kobayashi, J. Normand, 
 K. Raghavachari, A. P. Rendell, J. C. Burant, S. S. Iyengar, 
 J. Tomasi, M. Cossi, J. M. Millam, M. Klene, C. Adamo, R. Cammi, 
 J. W. Ochterski, R. L. Martin, K. Morokuma, O. Farkas, 
 J. B. Foresman, and D. J. Fox, Gaussian, Inc., Wallingford CT, 2019.
 
 ******************************************
 Gaussian 16:  ES64L-G16RevC.01  3-Jul-2019
                10-Jul-2025 
 ******************************************
 %chk=Cl3F1_wat_M05-2x.chk
 %mem=20GB
 %nprocshared=20
 Will use up to   20 processors via shared memory.
 ---------------------------------------
 #P M052X/6-31G* scrf(SMD,solvent=water)
 ---------------------------------------
 1/38=1,172=1/1;
 2/12=2,17=6,18=5,40=1/2;
 3/5=1,6=6,7=1,11=2,25=1,30=1,70=32201,72=1,74=-38/1,2,3;
 4//1;
 5/5=2,38=5,53=1/2;
 6/7=2,8=2,9=2,10=2,28=1/1;
 99/5=1,9=1/99;
 Leave Link    1 at Thu Jul 10 14:44:08 2025, MaxMem=  2684354560 cpu:               0.9 elap:               0.1
 (Enter /apps/gaussian/g16c01/g16/l101.exe)
 ----------------
 Cl3F1_wat_M05-2x
 ----------------
 Symbolic Z-matrix:
 Charge =  0 Multiplicity = 1
 C                     0.50881   0.07975   0.00006 
 C                    -0.65806  -0.56498  -0.00005 
 Cl                    0.63721   1.80107  -0.00006 
 Cl                    1.99704  -0.80672   0.00033 
 F                    -0.71038  -1.89187   0.00004 
 Cl                   -2.20549   0.17849  -0.0003 
 
 ITRead=  0  0  0  0  0  0
 MicOpt= -1 -1 -1 -1 -1 -1
 NAtoms=      6 NQM=        6 NQMF=       0 NMMI=      0 NMMIF=      0
                NMic=       0 NMicF=      0.
                    Isotopes and Nuclear Properties:
 (Nuclear quadrupole moments (NQMom) in fm**2, nuclear magnetic moments (NMagM)
  in nuclear magnetons)

  Atom         1           2           3           4           5           6
 IAtWgt=          12          12          35          35          19          35
 AtmWgt=  12.0000000  12.0000000  34.9688527  34.9688527  18.9984033  34.9688527
 NucSpn=           0           0           3           3           1           3
 AtZEff=  -0.0000000  -0.0000000  -0.0000000  -0.0000000  -0.0000000  -0.0000000
 NQMom=    0.0000000   0.0000000  -8.1650000  -8.1650000   0.0000000  -8.1650000
 NMagM=    0.0000000   0.0000000   0.8218740   0.8218740   2.6288670   0.8218740
 AtZNuc=   6.0000000   6.0000000  17.0000000  17.0000000   9.0000000  17.0000000
 Leave Link  101 at Thu Jul 10 14:44:08 2025, MaxMem=  2684354560 cpu:               3.0 elap:               0.2
 (Enter /apps/gaussian/g16c01/g16/l202.exe)
                          Input orientation:                          
 ---------------------------------------------------------------------
 Center     Atomic      Atomic             Coordinates (Angstroms)
 Number     Number       Type             X           Y           Z
 ---------------------------------------------------------------------
      1          6           0        0.508814    0.079745    0.000063
      2          6           0       -0.658057   -0.564982   -0.000046
      3         17           0        0.637211    1.801066   -0.000061
      4         17           0        1.997041   -0.806717    0.000332
      5          9           0       -0.710384   -1.891873    0.000038
      6         17           0       -2.205492    0.178491   -0.000297
 ---------------------------------------------------------------------
                    Distance matrix (angstroms):
                    1          2          3          4          5
     1  C    0.000000
     2  C    1.333139   0.000000
     3  Cl   1.726103   2.697388   0.000000
     4  Cl   1.732234   2.666080   2.941032   0.000000
     5  F    2.318129   1.327922   3.931134   2.916799   0.000000
     6  Cl   2.716102   1.716772   3.273180   4.316471   2.553773
                    6
     6  Cl   0.000000
 Stoichiometry    C2Cl3F
 Framework group  C1[X(C2Cl3F)]
 Deg. of freedom    12
 Full point group                 C1      NOp   1
 Largest Abelian subgroup         C1      NOp   1
 Largest concise Abelian subgroup C1      NOp   1
                         Standard orientation:                         
 ---------------------------------------------------------------------
 Center     Atomic      Atomic             Coordinates (Angstroms)
 Number     Number       Type             X           Y           Z
 ---------------------------------------------------------------------
      1          6           0        0.508814    0.079745    0.000063
      2          6           0       -0.658057   -0.564982   -0.000046
      3         17           0        0.637210    1.801066   -0.000061
      4         17           0        1.997041   -0.806716    0.000332
      5          9           0       -0.710383   -1.891873    0.000038
      6         17           0       -2.205492    0.178490   -0.000297
 ---------------------------------------------------------------------
 Rotational constants (GHZ):           2.4157165           1.4792396           0.9174490
 Leave Link  202 at Thu Jul 10 14:44:09 2025, MaxMem=  2684354560 cpu:               0.9 elap:               0.1
 (Enter /apps/gaussian/g16c01/g16/l301.exe)
 Standard basis: 6-31G(d) (6D, 7F)
 Ernie: Thresh=  0.10000D-02 Tol=  0.10000D-05 Strict=F.
 There are   102 symmetry adapted cartesian basis functions of A   symmetry.
 There are   102 symmetry adapted basis functions of A   symmetry.
   102 basis functions,   240 primitive gaussians,   102 cartesian basis functions
    36 alpha electrons       36 beta electrons
       nuclear repulsion energy       416.3446580797 Hartrees.
 IExCor= 3428 DFT=T Ex+Corr=M052X ExCW=0 ScaHFX=  0.560000
 ScaDFX=  0.440000  0.440000  1.000000  1.000000 ScalE2=  1.000000  1.000000
 IRadAn=      5 IRanWt=     -1 IRanGd=            0 ICorTp=0 IEmpDi=  4
 NAtoms=    6 NActive=    6 NUniq=    6 SFac= 1.00D+00 NAtFMM=   60 NAOKFM=F Big=F
 Integral buffers will be    131072 words long.
 Raffenetti 2 integral format.
 Two-electron integral symmetry is turned on.
 ------------------------------------------------------------------------------
 Polarizable Continuum Model (PCM)
 =================================
 Model                : PCM.
 Atomic radii         : SMD-Coulomb.
 Polarization charges : Total charges.
 Charge compensation  : None.
 Solution method      : On-the-fly selection.
 Cavity type          : VdW (van der Waals Surface) (Alpha=1.000).
 Cavity algorithm     : GePol (No added spheres)
                        Default sphere list used, NSphG=    6.
                        Lebedev-Laikov grids with approx.  5.0 points / Ang**2.
                        Smoothing algorithm: York/Karplus (Gamma=1.0000).
                        Polarization charges: spherical gaussians, with
                                              point-specific exponents (IZeta= 3).
                        Self-potential: point-specific (ISelfS= 7).
                        Self-field    : sphere-specific E.n sum rule (ISelfD= 2).
 Solvent              : Water, Eps=  78.355300 Eps(inf)=   1.777849
 ------------------------------------------------------------------------------
 Spheres list:
 ISph  on   Nord     Re0    Alpha      Xe            Ye            Ze
    1   C      1    1.8500  1.000      0.508814      0.079745      0.000063
    2   C      2    1.8500  1.000     -0.658057     -0.564982     -0.000046
    3  Cl      3    2.3800  1.000      0.637210      1.801066     -0.000061
    4  Cl      4    2.3800  1.000      1.997041     -0.806716      0.000332
    5   F      5    1.7300  1.000     -0.710383     -1.891873      0.000038
    6  Cl      6    2.3800  1.000     -2.205492      0.178490     -0.000297
 ------------------------------------------------------------------------------
 GePol: Number of generator spheres                  =       6
 GePol: Total number of spheres                      =       6
 GePol: Number of exposed spheres                    =       6 (100.00%)
 GePol: Number of points                             =    1086
 GePol: Average weight of points                     =       0.15
 GePol: Minimum weight of points                     =   0.14D-06
 GePol: Maximum weight of points                     =    0.21501
 GePol: Number of points with low weight             =      20
 GePol: Fraction of low-weight points (<1% of avg)   =       1.84%
 GePol: Cavity surface area                          =    167.204 Ang**2
 GePol: Cavity volume                                =    163.737 Ang**3
 ------------------------------------------------------------------------------
 Atomic radii for non-electrostatic terms: SMD-CDS.
 ------------------------------------------------------------------------------
 PCM non-electrostatic energy =         0.0049594467 Hartrees.
 Nuclear repulsion after PCM non-electrostatic terms =      416.3496175263 Hartrees.
 Leave Link  301 at Thu Jul 10 14:44:09 2025, MaxMem=  2684354560 cpu:               3.8 elap:               0.3
 (Enter /apps/gaussian/g16c01/g16/l302.exe)
 NPDir=0 NMtPBC=     1 NCelOv=     1 NCel=       1 NClECP=     1 NCelD=      1
         NCelK=      1 NCelE2=     1 NClLst=     1 CellRange=     0.0.
 One-electron integrals computed using PRISM.
 One-electron integral symmetry used in STVInt
 NBasis=   102 RedAO= T EigKep=  3.40D-03  NBF=   102
 NBsUse=   102 1.00D-06 EigRej= -1.00D+00 NBFU=   102
 Precomputing XC quadrature grid using
 IXCGrd= 4 IRadAn=           5 IRanWt=          -1 IRanGd=           0 AccXCQ= 0.00D+00.
 Generated NRdTot=       0 NPtTot=           0 NUsed=           0 NTot=          32
 NSgBfM=   101   101   101   101   101 MxSgAt=     6 MxSgA2=     6.
 Leave Link  302 at Thu Jul 10 14:44:10 2025, MaxMem=  2684354560 cpu:              10.3 elap:               0.7
 (Enter /apps/gaussian/g16c01/g16/l303.exe)
 DipDrv:  MaxL=1.
 Leave Link  303 at Thu Jul 10 14:44:10 2025, MaxMem=  2684354560 cpu:               1.8 elap:               0.1
 (Enter /apps/gaussian/g16c01/g16/l401.exe)
 ExpMin= 1.43D-01 ExpMax= 2.52D+04 ExpMxC= 3.78D+03 IAcc=3 IRadAn=         5 AccDes= 0.00D+00
 Harris functional with IExCor= 1009 and IRadAn=       5 diagonalized for initial guess.
 HarFok:  IExCor= 1009 AccDes= 0.00D+00 IRadAn=         5 IDoV= 1 UseB2=F ITyADJ=14
 ICtDFT=  3500011 ScaDFX=  1.000000  1.000000  1.000000  1.000000
 FoFCou: FMM=F IPFlag=           0 FMFlag=      100000 FMFlg1=           0
         NFxFlg=           0 DoJE=T BraDBF=F KetDBF=T FulRan=T
         wScrn=  0.000000 ICntrl=       500 IOpCl=  0 I1Cent=   200000004 NGrid=           0
         NMat0=    1 NMatS0=      1 NMatT0=    0 NMatD0=    1 NMtDS0=    0 NMtDT0=    0
 Petite list used in FoFCou.
 Harris En= -1555.59540669343    
 JPrj=0 DoOrth=F DoCkMO=F.
 Leave Link  401 at Thu Jul 10 14:44:10 2025, MaxMem=  2684354560 cpu:               4.7 elap:               0.3
 (Enter /apps/gaussian/g16c01/g16/l502.exe)
 Keep R1 ints in memory in canonical form, NReq=32346002.
 FoFCou: FMM=F IPFlag=           0 FMFlag=           0 FMFlg1=           0
         NFxFlg=           0 DoJE=F BraDBF=F KetDBF=F FulRan=T
         wScrn=  0.000000 ICntrl=       600 IOpCl=  0 I1Cent=           0 NGrid=           0
         NMat0=    1 NMatS0=   5253 NMatT0=    0 NMatD0=    1 NMtDS0=    0 NMtDT0=    0
 Symmetry not used in FoFCou.
 Two-electron integral symmetry not used.
 Closed shell SCF:
 Using DIIS extrapolation, IDIIS=  1040.
 NGot=  2684354560 LenX=  2670530862 LenY=  2670520017
 Requested convergence on RMS density matrix=1.00D-08 within 128 cycles.
 Requested convergence on MAX density matrix=1.00D-06.
 Requested convergence on             energy=1.00D-06.
 No special actions if energy rises.

 Cycle   1  Pass 1  IDiag  1:
 Inv3:  Mode=1 IEnd=     3538188.
 Iteration    1 A*A^-1 deviation from unit magnitude is 3.33D-15 for   1081.
 Iteration    1 A*A^-1 deviation from orthogonality  is 1.42D-15 for   1023     91.
 Iteration    1 A^-1*A deviation from unit magnitude is 3.33D-15 for   1081.
 Iteration    1 A^-1*A deviation from orthogonality  is 1.06D-15 for   1038    114.
 E= -1556.45725091746    
 DIIS: error= 2.76D-02 at cycle   1 NSaved=   1.
 NSaved= 1 IEnMin= 1 EnMin= -1556.45725091746     IErMin= 1 ErrMin= 2.76D-02
 ErrMax= 2.76D-02  0.00D+00 EMaxC= 1.00D-01 BMatC= 7.90D-02 BMatP= 7.90D-02
 IDIUse=3 WtCom= 7.24D-01 WtEn= 2.76D-01
 Coeff-Com:  0.100D+01
 Coeff-En:   0.100D+01
 Coeff:      0.100D+01
 Gap=     0.356 Goal=   None    Shift=    0.000
 GapD=    0.356 DampG=1.000 DampE=0.500 DampFc=0.5000 IDamp=-1.
 Damping current iteration by 5.00D-01
 RMSDP=3.64D-03 MaxDP=8.29D-02              OVMax= 6.17D-02

 Cycle   2  Pass 1  IDiag  1:
 E= -1556.47687077491     Delta-E=       -0.019619857446 Rises=F Damp=T
 DIIS: error= 1.08D-02 at cycle   2 NSaved=   2.
 NSaved= 2 IEnMin= 2 EnMin= -1556.47687077491     IErMin= 2 ErrMin= 1.08D-02
 ErrMax= 1.08D-02  0.00D+00 EMaxC= 1.00D-01 BMatC= 1.12D-02 BMatP= 7.90D-02
 IDIUse=3 WtCom= 8.92D-01 WtEn= 1.08D-01
 Coeff-Com: -0.323D+00 0.132D+01
 Coeff-En:   0.000D+00 0.100D+01
 Coeff:     -0.288D+00 0.129D+01
 Gap=     0.358 Goal=   None    Shift=    0.000
 RMSDP=1.20D-03 MaxDP=1.48D-02 DE=-1.96D-02 OVMax= 3.82D-02

 Cycle   3  Pass 1  IDiag  1:
 E= -1556.49407462338     Delta-E=       -0.017203848472 Rises=F Damp=F
 DIIS: error= 4.23D-03 at cycle   3 NSaved=   3.
 NSaved= 3 IEnMin= 3 EnMin= -1556.49407462338     IErMin= 3 ErrMin= 4.23D-03
 ErrMax= 4.23D-03  0.00D+00 EMaxC= 1.00D-01 BMatC= 2.26D-03 BMatP= 1.12D-02
 IDIUse=3 WtCom= 9.58D-01 WtEn= 4.23D-02
 Coeff-Com: -0.207D+00 0.486D+00 0.721D+00
 Coeff-En:   0.000D+00 0.000D+00 0.100D+01
 Coeff:     -0.198D+00 0.465D+00 0.733D+00
 Gap=     0.340 Goal=   None    Shift=    0.000
 RMSDP=4.82D-04 MaxDP=7.57D-03 DE=-1.72D-02 OVMax= 1.03D-02

 Cycle   4  Pass 1  IDiag  1:
 E= -1556.49581077480     Delta-E=       -0.001736151422 Rises=F Damp=F
 DIIS: error= 4.37D-04 at cycle   4 NSaved=   4.
 NSaved= 4 IEnMin= 4 EnMin= -1556.49581077480     IErMin= 4 ErrMin= 4.37D-04
 ErrMax= 4.37D-04  0.00D+00 EMaxC= 1.00D-01 BMatC= 6.25D-05 BMatP= 2.26D-03
 IDIUse=3 WtCom= 9.96D-01 WtEn= 4.37D-03
 Coeff-Com: -0.523D-01 0.107D+00 0.243D+00 0.703D+00
 Coeff-En:   0.000D+00 0.000D+00 0.000D+00 0.100D+01
 Coeff:     -0.521D-01 0.106D+00 0.242D+00 0.704D+00
 Gap=     0.339 Goal=   None    Shift=    0.000
 RMSDP=1.11D-04 MaxDP=1.75D-03 DE=-1.74D-03 OVMax= 2.57D-03

 Cycle   5  Pass 1  IDiag  1:
 E= -1556.49586299872     Delta-E=       -0.000052223918 Rises=F Damp=F
 DIIS: error= 2.29D-04 at cycle   5 NSaved=   5.
 NSaved= 5 IEnMin= 5 EnMin= -1556.49586299872     IErMin= 5 ErrMin= 2.29D-04
 ErrMax= 2.29D-04  0.00D+00 EMaxC= 1.00D-01 BMatC= 6.36D-06 BMatP= 6.25D-05
 IDIUse=3 WtCom= 9.98D-01 WtEn= 2.29D-03
 Coeff-Com: -0.105D-01 0.178D-01 0.654D-01 0.307D+00 0.621D+00
 Coeff-En:   0.000D+00 0.000D+00 0.000D+00 0.000D+00 0.100D+01
 Coeff:     -0.105D-01 0.178D-01 0.652D-01 0.306D+00 0.622D+00
 Gap=     0.339 Goal=   None    Shift=    0.000
 RMSDP=2.94D-05 MaxDP=8.14D-04 DE=-5.22D-05 OVMax= 1.12D-03

 Cycle   6  Pass 1  IDiag  1:
 E= -1556.49586886370     Delta-E=       -0.000005864976 Rises=F Damp=F
 DIIS: error= 7.53D-05 at cycle   6 NSaved=   6.
 NSaved= 6 IEnMin= 6 EnMin= -1556.49586886370     IErMin= 6 ErrMin= 7.53D-05
 ErrMax= 7.53D-05  0.00D+00 EMaxC= 1.00D-01 BMatC= 6.83D-07 BMatP= 6.36D-06
 IDIUse=1 WtCom= 1.00D+00 WtEn= 0.00D+00
 Coeff-Com:  0.664D-02-0.146D-01-0.219D-01-0.939D-02 0.241D+00 0.799D+00
 Coeff:      0.664D-02-0.146D-01-0.219D-01-0.939D-02 0.241D+00 0.799D+00
 Gap=     0.339 Goal=   None    Shift=    0.000
 RMSDP=1.15D-05 MaxDP=2.77D-04 DE=-5.86D-06 OVMax= 3.66D-04

 Cycle   7  Pass 1  IDiag  1:
 E= -1556.49586967621     Delta-E=       -0.000000812510 Rises=F Damp=F
 DIIS: error= 1.28D-05 at cycle   7 NSaved=   7.
 NSaved= 7 IEnMin= 7 EnMin= -1556.49586967621     IErMin= 7 ErrMin= 1.28D-05
 ErrMax= 1.28D-05  0.00D+00 EMaxC= 1.00D-01 BMatC= 1.86D-08 BMatP= 6.83D-07
 IDIUse=1 WtCom= 1.00D+00 WtEn= 0.00D+00
 Coeff-Com:  0.146D-02-0.305D-02-0.610D-02-0.132D-01 0.131D-01 0.163D+00
 Coeff-Com:  0.844D+00
 Coeff:      0.146D-02-0.305D-02-0.610D-02-0.132D-01 0.131D-01 0.163D+00
 Coeff:      0.844D+00
 Gap=     0.339 Goal=   None    Shift=    0.000
 RMSDP=2.19D-06 MaxDP=3.62D-05 DE=-8.13D-07 OVMax= 7.11D-05

 Cycle   8  Pass 1  IDiag  1:
 E= -1556.49586969640     Delta-E=       -0.000000020198 Rises=F Damp=F
 DIIS: error= 5.45D-06 at cycle   8 NSaved=   8.
 NSaved= 8 IEnMin= 8 EnMin= -1556.49586969640     IErMin= 8 ErrMin= 5.45D-06
 ErrMax= 5.45D-06  0.00D+00 EMaxC= 1.00D-01 BMatC= 5.57D-09 BMatP= 1.86D-08
 IDIUse=1 WtCom= 1.00D+00 WtEn= 0.00D+00
 Coeff-Com:  0.327D-03-0.637D-03-0.191D-02-0.680D-02-0.136D-01 0.189D-01
 Coeff-Com:  0.392D+00 0.611D+00
 Coeff:      0.327D-03-0.637D-03-0.191D-02-0.680D-02-0.136D-01 0.189D-01
 Coeff:      0.392D+00 0.611D+00
 Gap=     0.339 Goal=   None    Shift=    0.000
 RMSDP=9.81D-07 MaxDP=1.85D-05 DE=-2.02D-08 OVMax= 1.79D-05

 Cycle   9  Pass 1  IDiag  1:
 E= -1556.49586970145     Delta-E=       -0.000000005051 Rises=F Damp=F
 DIIS: error= 1.60D-06 at cycle   9 NSaved=   9.
 NSaved= 9 IEnMin= 9 EnMin= -1556.49586970145     IErMin= 9 ErrMin= 1.60D-06
 ErrMax= 1.60D-06  0.00D+00 EMaxC= 1.00D-01 BMatC= 2.51D-10 BMatP= 5.57D-09
 IDIUse=1 WtCom= 1.00D+00 WtEn= 0.00D+00
 Coeff-Com: -0.157D-03 0.340D-03 0.555D-03 0.836D-03-0.367D-02-0.148D-01
 Coeff-Com: -0.459D-01 0.136D+00 0.927D+00
 Coeff:     -0.157D-03 0.340D-03 0.555D-03 0.836D-03-0.367D-02-0.148D-01
 Coeff:     -0.459D-01 0.136D+00 0.927D+00
 Gap=     0.339 Goal=   None    Shift=    0.000
 RMSDP=2.57D-07 MaxDP=4.24D-06 DE=-5.05D-09 OVMax= 7.82D-06

 Cycle  10  Pass 1  IDiag  1:
 E= -1556.49586970176     Delta-E=       -0.000000000304 Rises=F Damp=F
 DIIS: error= 1.36D-07 at cycle  10 NSaved=  10.
 NSaved=10 IEnMin=10 EnMin= -1556.49586970176     IErMin=10 ErrMin= 1.36D-07
 ErrMax= 1.36D-07  0.00D+00 EMaxC= 1.00D-01 BMatC= 5.19D-12 BMatP= 2.51D-10
 IDIUse=1 WtCom= 1.00D+00 WtEn= 0.00D+00
 Coeff-Com: -0.338D-04 0.704D-04 0.153D-03 0.406D-03-0.199D-03-0.281D-02
 Coeff-Com: -0.233D-01 0.206D-03 0.161D+00 0.865D+00
 Coeff:     -0.338D-04 0.704D-04 0.153D-03 0.406D-03-0.199D-03-0.281D-02
 Coeff:     -0.233D-01 0.206D-03 0.161D+00 0.865D+00
 Gap=     0.339 Goal=   None    Shift=    0.000
 RMSDP=5.10D-08 MaxDP=1.05D-06 DE=-3.04D-10 OVMax= 9.92D-07

 Cycle  11  Pass 1  IDiag  1:
 E= -1556.49586970176     Delta-E=       -0.000000000006 Rises=F Damp=F
 DIIS: error= 4.26D-08 at cycle  11 NSaved=  11.
 NSaved=11 IEnMin=11 EnMin= -1556.49586970176     IErMin=11 ErrMin= 4.26D-08
 ErrMax= 4.26D-08  0.00D+00 EMaxC= 1.00D-01 BMatC= 4.74D-13 BMatP= 5.19D-12
 IDIUse=1 WtCom= 1.00D+00 WtEn= 0.00D+00
 Coeff-Com:  0.400D-05-0.924D-05-0.467D-05 0.362D-04 0.146D-03 0.509D-03
 Coeff-Com: -0.209D-02-0.989D-02-0.282D-01 0.182D+00 0.857D+00
 Coeff:      0.400D-05-0.924D-05-0.467D-05 0.362D-04 0.146D-03 0.509D-03
 Coeff:     -0.209D-02-0.989D-02-0.282D-01 0.182D+00 0.857D+00
 Gap=     0.339 Goal=   None    Shift=    0.000
 RMSDP=1.43D-08 MaxDP=3.70D-07 DE=-5.91D-12 OVMax= 2.52D-07

 Cycle  12  Pass 1  IDiag  1:
 E= -1556.49586970177     Delta-E=       -0.000000000003 Rises=F Damp=F
 DIIS: error= 9.03D-09 at cycle  12 NSaved=  12.
 NSaved=12 IEnMin=12 EnMin= -1556.49586970177     IErMin=12 ErrMin= 9.03D-09
 ErrMax= 9.03D-09  0.00D+00 EMaxC= 1.00D-01 BMatC= 2.23D-14 BMatP= 4.74D-13
 IDIUse=1 WtCom= 1.00D+00 WtEn= 0.00D+00
 Coeff-Com:  0.238D-05-0.509D-05-0.814D-05-0.132D-04 0.217D-04 0.260D-03
 Coeff-Com:  0.661D-03-0.190D-02-0.131D-01-0.345D-02 0.144D+00 0.873D+00
 Coeff:      0.238D-05-0.509D-05-0.814D-05-0.132D-04 0.217D-04 0.260D-03
 Coeff:      0.661D-03-0.190D-02-0.131D-01-0.345D-02 0.144D+00 0.873D+00
 Gap=     0.339 Goal=   None    Shift=    0.000
 RMSDP=3.33D-09 MaxDP=7.05D-08 DE=-3.41D-12 OVMax= 6.49D-08

 Error on total polarization charges =  0.00428
 SCF Done:  E(RM052X) =  -1556.49586970     A.U. after   12 cycles
            NFock= 12  Conv=0.33D-08     -V/T= 2.0036
 KE= 1.550955973998D+03 PE=-4.526763586235D+03 EE= 1.002962125009D+03
 SMD-CDS (non-electrostatic) energy       (kcal/mol) =       3.11
 (included in total energy above)
 Leave Link  502 at Thu Jul 10 14:44:14 2025, MaxMem=  2684354560 cpu:              79.1 elap:               4.3
 (Enter /apps/gaussian/g16c01/g16/l601.exe)
 Copying SCF densities to generalized density rwf, IOpCl= 0 IROHF=0.

 **********************************************************************

            Population analysis using the SCF Density.

 **********************************************************************

 Orbital symmetries:
       Occupied  (A) (A) (A) (A) (A) (A) (A) (A) (A) (A) (A) (A)
                 (A) (A) (A) (A) (A) (A) (A) (A) (A) (A) (A) (A)
                 (A) (A) (A) (A) (A) (A) (A) (A) (A) (A) (A) (A)
       Virtual   (A) (A) (A) (A) (A) (A) (A) (A) (A) (A) (A) (A)
                 (A) (A) (A) (A) (A) (A) (A) (A) (A) (A) (A) (A)
                 (A) (A) (A) (A) (A) (A) (A) (A) (A) (A) (A) (A)
                 (A) (A) (A) (A) (A) (A) (A) (A) (A) (A) (A) (A)
                 (A) (A) (A) (A) (A) (A) (A) (A) (A) (A) (A) (A)
                 (A) (A) (A) (A) (A) (A)
 The electronic state is 1-A.
 Alpha  occ. eigenvalues -- -102.81010-102.80697-102.80434 -25.36150 -10.75580
 Alpha  occ. eigenvalues --  -10.71824  -9.85575  -9.85175  -9.84911  -7.58209
 Alpha  occ. eigenvalues --   -7.57824  -7.57560  -7.57537  -7.57524  -7.57127
 Alpha  occ. eigenvalues --   -7.57127  -7.56863  -7.56862  -1.41056  -1.05831
 Alpha  occ. eigenvalues --   -1.00243  -0.95728  -0.85433  -0.71009  -0.63165
 Alpha  occ. eigenvalues --   -0.61661  -0.61285  -0.53453  -0.50957  -0.49644
 Alpha  occ. eigenvalues --   -0.44007  -0.43254  -0.42472  -0.41299  -0.39160
 Alpha  occ. eigenvalues --   -0.31586
 Alpha virt. eigenvalues --    0.02358   0.03369   0.04439   0.10215   0.23212
 Alpha virt. eigenvalues --    0.31002   0.33653   0.36799   0.41595   0.44177
 Alpha virt. eigenvalues --    0.44280   0.45477   0.46710   0.47756   0.49263
 Alpha virt. eigenvalues --    0.52219   0.53823   0.54427   0.58925   0.58949
 Alpha virt. eigenvalues --    0.65312   0.67967   0.79719   0.82939   0.83804
 Alpha virt. eigenvalues --    0.87256   0.88428   0.90254   0.91064   0.91279
 Alpha virt. eigenvalues --    0.92377   0.92428   0.99190   1.01776   1.05375
 Alpha virt. eigenvalues --    1.06214   1.10392   1.15381   1.17730   1.19222
 Alpha virt. eigenvalues --    1.30512   1.33418   1.39111   1.45547   1.49967
 Alpha virt. eigenvalues --    1.56876   1.82339   1.83838   1.88162   1.88259
 Alpha virt. eigenvalues --    1.96061   2.03516   2.06355   2.22472   2.29959
 Alpha virt. eigenvalues --    2.37141   2.54604   2.67853   2.86051   3.08826
 Alpha virt. eigenvalues --    4.00543   4.15259   4.28692   4.34862   4.42604
 Alpha virt. eigenvalues --    4.73854
          Condensed to atoms (all electrons):
               1          2          3          4          5          6
     1  C    5.574779   0.424621   0.246009   0.230618  -0.062067  -0.097017
     2  C    0.424621   4.864692  -0.077812  -0.079025   0.295717   0.297540
     3  Cl   0.246009  -0.077812  16.791031  -0.062845   0.001175   0.003580
     4  Cl   0.230618  -0.079025  -0.062845  16.814916   0.005543   0.003245
     5  F   -0.062067   0.295717   0.001175   0.005543   9.036158  -0.042592
     6  Cl  -0.097017   0.297540   0.003580   0.003245  -0.042592  16.745048
 Mulliken charges:
               1
     1  C   -0.316943
     2  C    0.274268
     3  Cl   0.098862
     4  Cl   0.087550
     5  F   -0.233933
     6  Cl   0.090197
 Sum of Mulliken charges =  -0.00000
 Mulliken charges with hydrogens summed into heavy atoms:
               1
     1  C   -0.316943
     2  C    0.274268
     3  Cl   0.098862
     4  Cl   0.087550
     5  F   -0.233933
     6  Cl   0.090197
 Electronic spatial extent (au):  <R**2>=           1071.4109
 Charge=             -0.0000 electrons
 Dipole moment (field-independent basis, Debye):
    X=             -0.4616    Y=              0.3231    Z=             -0.0001  Tot=              0.5635
 Quadrupole moment (field-independent basis, Debye-Ang):
   XX=            -51.9141   YY=            -53.3399   ZZ=            -53.3620
   XY=             -0.8959   XZ=              0.0002   YZ=             -0.0001
 Traceless Quadrupole moment (field-independent basis, Debye-Ang):
   XX=              0.9579   YY=             -0.4679   ZZ=             -0.4900
   XY=             -0.8959   XZ=              0.0002   YZ=             -0.0001
 Octapole moment (field-independent basis, Debye-Ang**2):
  XXX=             -7.4980  YYY=             -1.8234  ZZZ=              0.0000  XYY=              0.8632
  XXY=             -3.2163  XXZ=             -0.0002  XZZ=             -1.9246  YZZ=             -3.9121
  YYZ=             -0.0004  XYZ=             -0.0001
 Hexadecapole moment (field-independent basis, Debye-Ang**3):
 XXXX=           -732.8582 YYYY=           -434.0457 ZZZZ=            -55.1196 XXXY=            -15.0928
 XXXZ=             -0.0394 YYYX=              7.2621 YYYZ=              0.0145 ZZZX=             -0.0494
 ZZZY=              0.0170 XXYY=           -199.5190 XXZZ=           -141.7652 YYZZ=            -86.1546
 XXYZ=              0.0018 YYXZ=             -0.0151 ZZXY=              2.8200
 N-N= 4.163496175263D+02 E-N=-4.526763585706D+03  KE= 1.550955973998D+03
 No NMR shielding tensors so no spin-rotation constants.
 Leave Link  601 at Thu Jul 10 14:44:15 2025, MaxMem=  2684354560 cpu:               4.0 elap:               0.2
 (Enter /apps/gaussian/g16c01/g16/l9999.exe)
 Unable to Open any file for archive entry.
 1\1\GINC-GADI-CPU-CLX-1892\SP\RM052X\6-31G(d)\C2Cl3F1\YR9300\10-Jul-20
 25\0\\#P M052X/6-31G* scrf(SMD,solvent=water)\\Cl3F1_wat_M05-2x\\0,1\C
 ,0,0.508814,0.079745,0.000063\C,0,-0.658057,-0.564982,-0.000046\Cl,0,0
 .637211,1.801066,-0.000061\Cl,0,1.997041,-0.806717,0.000332\F,0,-0.710
 384,-1.891873,0.000038\Cl,0,-2.205492,0.178491,-0.000297\\Version=ES64
 L-G16RevC.01\State=1-A\HF=-1556.4958697\RMSD=3.330e-09\Dipole=-0.18162
 52,0.1271154,-0.0000319\Quadrupole=0.7121538,-0.3478724,-0.3642813,-0.
 6660478,0.0001846,-0.0001018\PG=C01 [X(C2Cl3F1)]\\@
 The archive entry for this job was punched.


 BE NOT THE FIRST BY WHOM THE NEW ARE TRIED,
 NOR YET THE THE LAST TO LAY THE OLD ASIDE.

                          -- ALEXANDER POPE
 Job cpu time:       0 days  0 hours  1 minutes 50.1 seconds.
 Elapsed time:       0 days  0 hours  0 minutes  6.4 seconds.
 File lengths (MBytes):  RWF=     27 Int=      0 D2E=      0 Chk=      2 Scr=      1
 Normal termination of Gaussian 16 at Thu Jul 10 14:44:15 2025.
