 Entering Gaussian System, Link 0=g16
 Initial command:
 /apps/gaussian/g16c01/g16/l1.exe "/jobfs/145005558.gadi-pbs/Gau-1334763.inp" -scrdir="/jobfs/145005558.gadi-pbs/"
 Entering Link 1 = /apps/gaussian/g16c01/g16/l1.exe PID=   1334764.
  
 Copyright (c) 1988-2019, Gaussian, Inc.  All Rights Reserved.
  
 This is part of the Gaussian(R) 16 program.  It is based on
 the Gaussian(R) 09 system (copyright 2009, Gaussian, Inc.),
 the Gaussian(R) 03 system (copyright 2003, Gaussian, Inc.),
 the Gaussian(R) 98 system (copyright 1998, Gaussian, Inc.),
 the Gaussian(R) 94 system (copyright 1995, Gaussian, Inc.),
 the Gaussian 92(TM) system (copyright 1992, Gaussian, Inc.),
 the Gaussian 90(TM) system (copyright 1990, Gaussian, Inc.),
 the Gaussian 88(TM) system (copyright 1988, Gaussian, Inc.),
 the Gaussian 86(TM) system (copyright 1986, Carnegie Mellon
 University), and the Gaussian 82(TM) system (copyright 1983,
 Carnegie Mellon University). Gaussian is a federally registered
 trademark of Gaussian, Inc.
  
 This software contains proprietary and confidential information,
 including trade secrets, belonging to Gaussian, Inc.
  
 This software is provided under written license and may be
 used, copied, transmitted, or stored only in accord with that
 written license.
  
 The following legend is applicable only to US Government
 contracts under FAR:
  
                    RESTRICTED RIGHTS LEGEND
  
 Use, reproduction and disclosure by the US Government is
 subject to restrictions as set forth in subparagraphs (a)
 and (c) of the Commercial Computer Software - Restricted
 Rights clause in FAR 52.227-19.
  
 Gaussian, Inc.
 340 Quinnipiac St., Bldg. 40, Wallingford CT 06492
  
  
 ---------------------------------------------------------------
 Warning -- This program may not be used in any manner that
 competes with the business of Gaussian, Inc. or will provide
 assistance to any competitor of Gaussian, Inc.  The licensee
 of this program is prohibited from giving any competitor of
 Gaussian, Inc. access to this program.  By using this program,
 the user acknowledges that Gaussian, Inc. is engaged in the
 business of creating and licensing software in the field of
 computational chemistry and represents and warrants to the
 licensee that it is not a competitor of Gaussian, Inc. and that
 it will not use this program in any manner prohibited above.
 ---------------------------------------------------------------
  

 Cite this work as:
 Gaussian 16, Revision C.01,
 M. J. Frisch, G. W. Trucks, H. B. Schlegel, G. E. Scuseria, 
 M. A. Robb, J. R. Cheeseman, G. Scalmani, V. Barone, 
 G. A. Petersson, H. Nakatsuji, X. Li, M. Caricato, A. V. Marenich, 
 J. Bloino, B. G. Janesko, R. Gomperts, B. Mennucci, H. P. Hratchian, 
 J. V. Ortiz, A. F. Izmaylov, J. L. Sonnenberg, D. Williams-Young, 
 F. Ding, F. Lipparini, F. Egidi, J. Goings, B. Peng, A. Petrone, 
 T. Henderson, D. Ranasinghe, V. G. Zakrzewski, J. Gao, N. Rega, 
 G. Zheng, W. Liang, M. Hada, M. Ehara, K. Toyota, R. Fukuda, 
 J. Hasegawa, M. Ishida, T. Nakajima, Y. Honda, O. Kitao, H. Nakai, 
 T. Vreven, K. Throssell, J. A. Montgomery, Jr., J. E. Peralta, 
 F. Ogliaro, M. J. Bearpark, J. J. Heyd, E. N. Brothers, K. N. Kudin, 
 V. N. Staroverov, T. A. Keith, R. Kobayashi, J. Normand, 
 K. Raghavachari, A. P. Rendell, J. C. Burant, S. S. Iyengar, 
 J. Tomasi, M. Cossi, J. M. Millam, M. Klene, C. Adamo, R. Cammi, 
 J. W. Ochterski, R. L. Martin, K. Morokuma, O. Farkas, 
 J. B. Foresman, and D. J. Fox, Gaussian, Inc., Wallingford CT, 2019.
 
 ******************************************
 Gaussian 16:  ES64L-G16RevC.01  3-Jul-2019
                10-Jul-2025 
 ******************************************
 %chk=Cl3F1_oct_vaccum_M05-2x.chk
 %mem=20GB
 %nprocshared=20
 Will use up to   20 processors via shared memory.
 ---------------
 #P M052X/6-31G*
 ---------------
 1/38=1,172=1/1;
 2/12=2,17=6,18=5,40=1/2;
 3/5=1,6=6,7=1,11=2,25=1,30=1,74=-38/1,2,3;
 4//1;
 5/5=2,38=5/2;
 6/7=2,8=2,9=2,10=2,28=1/1;
 99/5=1,9=1/99;
 Leave Link    1 at Thu Jul 10 14:00:35 2025, MaxMem=  2684354560 cpu:               1.5 elap:               0.1
 (Enter /apps/gaussian/g16c01/g16/l101.exe)
 -----------------------
 Cl3F1_oct_vaccum_M05-2x
 -----------------------
 Symbolic Z-matrix:
 Charge =  0 Multiplicity = 1
 C                     0.50902   0.07927   0.00006 
 C                    -0.65874  -0.56456  -0.00005 
 Cl                    0.63948   1.80081  -0.00006 
 Cl                    1.99692  -0.80809   0.00034 
 F                    -0.71266  -1.89155   0.00004 
 Cl                   -2.20626   0.17997  -0.00029 
 
 ITRead=  0  0  0  0  0  0
 MicOpt= -1 -1 -1 -1 -1 -1
 NAtoms=      6 NQM=        6 NQMF=       0 NMMI=      0 NMMIF=      0
                NMic=       0 NMicF=      0.
                    Isotopes and Nuclear Properties:
 (Nuclear quadrupole moments (NQMom) in fm**2, nuclear magnetic moments (NMagM)
  in nuclear magnetons)

  Atom         1           2           3           4           5           6
 IAtWgt=          12          12          35          35          19          35
 AtmWgt=  12.0000000  12.0000000  34.9688527  34.9688527  18.9984033  34.9688527
 NucSpn=           0           0           3           3           1           3
 AtZEff=  -0.0000000  -0.0000000  -0.0000000  -0.0000000  -0.0000000  -0.0000000
 NQMom=    0.0000000   0.0000000  -8.1650000  -8.1650000   0.0000000  -8.1650000
 NMagM=    0.0000000   0.0000000   0.8218740   0.8218740   2.6288670   0.8218740
 AtZNuc=   6.0000000   6.0000000  17.0000000  17.0000000   9.0000000  17.0000000
 Leave Link  101 at Thu Jul 10 14:00:35 2025, MaxMem=  2684354560 cpu:               6.4 elap:               0.4
 (Enter /apps/gaussian/g16c01/g16/l202.exe)
                          Input orientation:                          
 ---------------------------------------------------------------------
 Center     Atomic      Atomic             Coordinates (Angstroms)
 Number     Number       Type             X           Y           Z
 ---------------------------------------------------------------------
      1          6           0        0.509020    0.079272    0.000059
      2          6           0       -0.658744   -0.564563   -0.000047
      3         17           0        0.639479    1.800805   -0.000063
      4         17           0        1.996918   -0.808087    0.000335
      5          9           0       -0.712660   -1.891548    0.000035
      6         17           0       -2.206262    0.179969   -0.000294
 ---------------------------------------------------------------------
                    Distance matrix (angstroms):
                    1          2          3          4          5
     1  C    0.000000
     2  C    1.333490   0.000000
     3  Cl   1.726469   2.698212   0.000000
     4  Cl   1.732411   2.666804   2.940911   0.000000
     5  F    2.318757   1.328080   3.932143   2.918167   0.000000
     6  Cl   2.717149   1.717306   3.274958   4.317751   2.553826
                    6
     6  Cl   0.000000
 Stoichiometry    C2Cl3F
 Framework group  C1[X(C2Cl3F)]
 Deg. of freedom    12
 Full point group                 C1      NOp   1
 Largest Abelian subgroup         C1      NOp   1
 Largest concise Abelian subgroup C1      NOp   1
                         Standard orientation:                         
 ---------------------------------------------------------------------
 Center     Atomic      Atomic             Coordinates (Angstroms)
 Number     Number       Type             X           Y           Z
 ---------------------------------------------------------------------
      1          6           0        0.509020    0.079272    0.000059
      2          6           0       -0.658744   -0.564563   -0.000047
      3         17           0        0.639478    1.800805   -0.000063
      4         17           0        1.996918   -0.808087    0.000335
      5          9           0       -0.712660   -1.891548    0.000035
      6         17           0       -2.206262    0.179968   -0.000294
 ---------------------------------------------------------------------
 Rotational constants (GHZ):           2.4153348           1.4780379           0.9169316
 Leave Link  202 at Thu Jul 10 14:00:35 2025, MaxMem=  2684354560 cpu:               1.5 elap:               0.1
 (Enter /apps/gaussian/g16c01/g16/l301.exe)
 Standard basis: 6-31G(d) (6D, 7F)
 Ernie: Thresh=  0.10000D-02 Tol=  0.10000D-05 Strict=F.
 There are   102 symmetry adapted cartesian basis functions of A   symmetry.
 There are   102 symmetry adapted basis functions of A   symmetry.
   102 basis functions,   240 primitive gaussians,   102 cartesian basis functions
    36 alpha electrons       36 beta electrons
       nuclear repulsion energy       416.2434534844 Hartrees.
 IExCor= 3428 DFT=T Ex+Corr=M052X ExCW=0 ScaHFX=  0.560000
 ScaDFX=  0.440000  0.440000  1.000000  1.000000 ScalE2=  1.000000  1.000000
 IRadAn=      5 IRanWt=     -1 IRanGd=            0 ICorTp=0 IEmpDi=  4
 NAtoms=    6 NActive=    6 NUniq=    6 SFac= 1.00D+00 NAtFMM=   60 NAOKFM=F Big=F
 Integral buffers will be    131072 words long.
 Raffenetti 2 integral format.
 Two-electron integral symmetry is turned on.
 Leave Link  301 at Thu Jul 10 14:00:35 2025, MaxMem=  2684354560 cpu:               2.8 elap:               0.2
 (Enter /apps/gaussian/g16c01/g16/l302.exe)
 NPDir=0 NMtPBC=     1 NCelOv=     1 NCel=       1 NClECP=     1 NCelD=      1
         NCelK=      1 NCelE2=     1 NClLst=     1 CellRange=     0.0.
 One-electron integrals computed using PRISM.
 One-electron integral symmetry used in STVInt
 NBasis=   102 RedAO= T EigKep=  3.40D-03  NBF=   102
 NBsUse=   102 1.00D-06 EigRej= -1.00D+00 NBFU=   102
 Precomputing XC quadrature grid using
 IXCGrd= 4 IRadAn=           5 IRanWt=          -1 IRanGd=           0 AccXCQ= 0.00D+00.
 Generated NRdTot=       0 NPtTot=           0 NUsed=           0 NTot=          32
 NSgBfM=   101   101   101   101   101 MxSgAt=     6 MxSgA2=     6.
 Leave Link  302 at Thu Jul 10 14:00:36 2025, MaxMem=  2684354560 cpu:               5.4 elap:               0.3
 (Enter /apps/gaussian/g16c01/g16/l303.exe)
 DipDrv:  MaxL=1.
 Leave Link  303 at Thu Jul 10 14:00:37 2025, MaxMem=  2684354560 cpu:              10.0 elap:               1.1
 (Enter /apps/gaussian/g16c01/g16/l401.exe)
 ExpMin= 1.43D-01 ExpMax= 2.52D+04 ExpMxC= 3.78D+03 IAcc=3 IRadAn=         5 AccDes= 0.00D+00
 Harris functional with IExCor= 1009 and IRadAn=       5 diagonalized for initial guess.
 HarFok:  IExCor= 1009 AccDes= 0.00D+00 IRadAn=         5 IDoV= 1 UseB2=F ITyADJ=14
 ICtDFT=  3500011 ScaDFX=  1.000000  1.000000  1.000000  1.000000
 FoFCou: FMM=F IPFlag=           0 FMFlag=      100000 FMFlg1=           0
         NFxFlg=           0 DoJE=T BraDBF=F KetDBF=T FulRan=T
         wScrn=  0.000000 ICntrl=       500 IOpCl=  0 I1Cent=   200000004 NGrid=           0
         NMat0=    1 NMatS0=      1 NMatT0=    0 NMatD0=    1 NMtDS0=    0 NMtDT0=    0
 Petite list used in FoFCou.
 Harris En= -1555.60036183965    
 JPrj=0 DoOrth=F DoCkMO=F.
 Leave Link  401 at Thu Jul 10 14:00:37 2025, MaxMem=  2684354560 cpu:               5.7 elap:               0.3
 (Enter /apps/gaussian/g16c01/g16/l502.exe)
 Keep R1 ints in memory in canonical form, NReq=32346002.
 FoFCou: FMM=F IPFlag=           0 FMFlag=           0 FMFlg1=           0
         NFxFlg=           0 DoJE=F BraDBF=F KetDBF=F FulRan=T
         wScrn=  0.000000 ICntrl=       600 IOpCl=  0 I1Cent=           0 NGrid=           0
         NMat0=    1 NMatS0=   5253 NMatT0=    0 NMatD0=    1 NMtDS0=    0 NMtDT0=    0
 Symmetry not used in FoFCou.
 Two-electron integral symmetry not used.
 Closed shell SCF:
 Using DIIS extrapolation, IDIIS=  1040.
 NGot=  2684354560 LenX=  2670530862 LenY=  2670520017
 Requested convergence on RMS density matrix=1.00D-08 within 128 cycles.
 Requested convergence on MAX density matrix=1.00D-06.
 Requested convergence on             energy=1.00D-06.
 No special actions if energy rises.
 Integral accuracy reduced to 1.0D-05 until final iterations.

 Cycle   1  Pass 0  IDiag  1:
 E= -1556.46059716156    
 DIIS: error= 2.76D-02 at cycle   1 NSaved=   1.
 NSaved= 1 IEnMin= 1 EnMin= -1556.46059716156     IErMin= 1 ErrMin= 2.76D-02
 ErrMax= 2.76D-02  0.00D+00 EMaxC= 1.00D-01 BMatC= 7.96D-02 BMatP= 7.96D-02
 IDIUse=3 WtCom= 7.24D-01 WtEn= 2.76D-01
 Coeff-Com:  0.100D+01
 Coeff-En:   0.100D+01
 Coeff:      0.100D+01
 Gap=     0.356 Goal=   None    Shift=    0.000
 GapD=    0.356 DampG=1.000 DampE=0.500 DampFc=0.5000 IDamp=-1.
 Damping current iteration by 5.00D-01
 RMSDP=3.70D-03 MaxDP=8.25D-02              OVMax= 6.27D-02

 Cycle   2  Pass 0  IDiag  1:
 E= -1556.48010003285     Delta-E=       -0.019502871290 Rises=F Damp=T
 DIIS: error= 1.08D-02 at cycle   2 NSaved=   2.
 NSaved= 2 IEnMin= 2 EnMin= -1556.48010003285     IErMin= 2 ErrMin= 1.08D-02
 ErrMax= 1.08D-02  0.00D+00 EMaxC= 1.00D-01 BMatC= 1.13D-02 BMatP= 7.96D-02
 IDIUse=3 WtCom= 8.92D-01 WtEn= 1.08D-01
 Coeff-Com: -0.301D+00 0.130D+01
 Coeff-En:   0.000D+00 0.100D+01
 Coeff:     -0.269D+00 0.127D+01
 Gap=     0.360 Goal=   None    Shift=    0.000
 RMSDP=1.36D-03 MaxDP=1.85D-02 DE=-1.95D-02 OVMax= 4.27D-02

 Cycle   3  Pass 0  IDiag  1:
 E= -1556.49722188681     Delta-E=       -0.017121853956 Rises=F Damp=F
 DIIS: error= 4.69D-03 at cycle   3 NSaved=   3.
 NSaved= 3 IEnMin= 3 EnMin= -1556.49722188681     IErMin= 3 ErrMin= 4.69D-03
 ErrMax= 4.69D-03  0.00D+00 EMaxC= 1.00D-01 BMatC= 2.81D-03 BMatP= 1.13D-02
 IDIUse=3 WtCom= 9.53D-01 WtEn= 4.69D-02
 Coeff-Com: -0.214D+00 0.509D+00 0.704D+00
 Coeff-En:   0.000D+00 0.000D+00 0.100D+01
 Coeff:     -0.204D+00 0.486D+00 0.718D+00
 Gap=     0.339 Goal=   None    Shift=    0.000
 RMSDP=6.09D-04 MaxDP=8.39D-03 DE=-1.71D-02 OVMax= 1.24D-02

 Cycle   4  Pass 0  IDiag  1:
 E= -1556.49943764968     Delta-E=       -0.002215762875 Rises=F Damp=F
 DIIS: error= 5.38D-04 at cycle   4 NSaved=   4.
 NSaved= 4 IEnMin= 4 EnMin= -1556.49943764968     IErMin= 4 ErrMin= 5.38D-04
 ErrMax= 5.38D-04  0.00D+00 EMaxC= 1.00D-01 BMatC= 7.03D-05 BMatP= 2.81D-03
 IDIUse=3 WtCom= 9.95D-01 WtEn= 5.38D-03
 Coeff-Com: -0.500D-01 0.999D-01 0.229D+00 0.721D+00
 Coeff-En:   0.000D+00 0.000D+00 0.000D+00 0.100D+01
 Coeff:     -0.497D-01 0.994D-01 0.228D+00 0.723D+00
 Gap=     0.338 Goal=   None    Shift=    0.000
 RMSDP=1.39D-04 MaxDP=2.14D-03 DE=-2.22D-03 OVMax= 1.78D-03

 Cycle   5  Pass 0  IDiag  1:
 E= -1556.49950233993     Delta-E=       -0.000064690253 Rises=F Damp=F
 DIIS: error= 1.51D-04 at cycle   5 NSaved=   5.
 NSaved= 5 IEnMin= 5 EnMin= -1556.49950233993     IErMin= 5 ErrMin= 1.51D-04
 ErrMax= 1.51D-04  0.00D+00 EMaxC= 1.00D-01 BMatC= 2.49D-06 BMatP= 7.03D-05
 IDIUse=3 WtCom= 9.98D-01 WtEn= 1.51D-03
 Coeff-Com: -0.476D-02 0.702D-02 0.356D-01 0.190D+00 0.772D+00
 Coeff-En:   0.000D+00 0.000D+00 0.000D+00 0.000D+00 0.100D+01
 Coeff:     -0.475D-02 0.701D-02 0.356D-01 0.190D+00 0.772D+00
 Gap=     0.338 Goal=   None    Shift=    0.000
 RMSDP=2.78D-05 MaxDP=6.79D-04 DE=-6.47D-05 OVMax= 7.90D-04

 Cycle   6  Pass 0  IDiag  1:
 E= -1556.49950433884     Delta-E=       -0.000001998908 Rises=F Damp=F
 DIIS: error= 7.75D-05 at cycle   6 NSaved=   6.
 NSaved= 6 IEnMin= 6 EnMin= -1556.49950433884     IErMin= 6 ErrMin= 7.75D-05
 ErrMax= 7.75D-05  0.00D+00 EMaxC= 1.00D-01 BMatC= 1.28D-06 BMatP= 2.49D-06
 IDIUse=1 WtCom= 1.00D+00 WtEn= 0.00D+00
 Coeff-Com:  0.653D-02-0.145D-01-0.205D-01-0.136D-01 0.435D+00 0.607D+00
 Coeff:      0.653D-02-0.145D-01-0.205D-01-0.136D-01 0.435D+00 0.607D+00
 Gap=     0.338 Goal=   None    Shift=    0.000
 RMSDP=1.30D-05 MaxDP=2.51D-04 DE=-2.00D-06 OVMax= 3.95D-04

 Cycle   7  Pass 0  IDiag  1:
 E= -1556.49950555753     Delta-E=       -0.000001218692 Rises=F Damp=F
 DIIS: error= 1.25D-05 at cycle   7 NSaved=   7.
 NSaved= 7 IEnMin= 7 EnMin= -1556.49950555753     IErMin= 7 ErrMin= 1.25D-05
 ErrMax= 1.25D-05  0.00D+00 EMaxC= 1.00D-01 BMatC= 1.74D-08 BMatP= 1.28D-06
 IDIUse=1 WtCom= 1.00D+00 WtEn= 0.00D+00
 Coeff-Com:  0.143D-02-0.294D-02-0.627D-02-0.177D-01 0.110D-01 0.111D+00
 Coeff-Com:  0.904D+00
 Coeff:      0.143D-02-0.294D-02-0.627D-02-0.177D-01 0.110D-01 0.111D+00
 Coeff:      0.904D+00
 Gap=     0.338 Goal=   None    Shift=    0.000
 RMSDP=2.45D-06 MaxDP=4.35D-05 DE=-1.22D-06 OVMax= 6.40D-05

 Initial convergence to 1.0D-05 achieved.  Increase integral accuracy.
 Cycle   8  Pass 1  IDiag  1:
 E= -1556.49963234490     Delta-E=       -0.000126787361 Rises=F Damp=F
 DIIS: error= 6.86D-05 at cycle   1 NSaved=   1.
 NSaved= 1 IEnMin= 1 EnMin= -1556.49963234490     IErMin= 1 ErrMin= 6.86D-05
 ErrMax= 6.86D-05  0.00D+00 EMaxC= 1.00D-01 BMatC= 4.70D-07 BMatP= 4.70D-07
 IDIUse=1 WtCom= 1.00D+00 WtEn= 0.00D+00
 Coeff-Com:  0.100D+01
 Coeff:      0.100D+01
 Gap=     0.339 Goal=   None    Shift=    0.000
 RMSDP=2.45D-06 MaxDP=4.35D-05 DE=-1.27D-04 OVMax= 1.72D-04

 Cycle   9  Pass 1  IDiag  1:
 E= -1556.49963277607     Delta-E=       -0.000000431172 Rises=F Damp=F
 DIIS: error= 1.25D-05 at cycle   2 NSaved=   2.
 NSaved= 2 IEnMin= 2 EnMin= -1556.49963277607     IErMin= 2 ErrMin= 1.25D-05
 ErrMax= 1.25D-05  0.00D+00 EMaxC= 1.00D-01 BMatC= 3.33D-08 BMatP= 4.70D-07
 IDIUse=1 WtCom= 1.00D+00 WtEn= 0.00D+00
 Coeff-Com:  0.942D-01 0.906D+00
 Coeff:      0.942D-01 0.906D+00
 Gap=     0.338 Goal=   None    Shift=    0.000
 RMSDP=4.71D-06 MaxDP=1.14D-04 DE=-4.31D-07 OVMax= 8.93D-05

 Cycle  10  Pass 1  IDiag  1:
 E= -1556.49963279427     Delta-E=       -0.000000018201 Rises=F Damp=F
 DIIS: error= 9.81D-06 at cycle   3 NSaved=   3.
 NSaved= 3 IEnMin= 3 EnMin= -1556.49963279427     IErMin= 3 ErrMin= 9.81D-06
 ErrMax= 9.81D-06  0.00D+00 EMaxC= 1.00D-01 BMatC= 1.91D-08 BMatP= 3.33D-08
 IDIUse=1 WtCom= 1.00D+00 WtEn= 0.00D+00
 Coeff-Com: -0.238D-01 0.419D+00 0.604D+00
 Coeff:     -0.238D-01 0.419D+00 0.604D+00
 Gap=     0.338 Goal=   None    Shift=    0.000
 RMSDP=1.97D-06 MaxDP=4.02D-05 DE=-1.82D-08 OVMax= 4.76D-05

 Cycle  11  Pass 1  IDiag  1:
 E= -1556.49963281276     Delta-E=       -0.000000018496 Rises=F Damp=F
 DIIS: error= 2.13D-06 at cycle   4 NSaved=   4.
 NSaved= 4 IEnMin= 4 EnMin= -1556.49963281276     IErMin= 4 ErrMin= 2.13D-06
 ErrMax= 2.13D-06  0.00D+00 EMaxC= 1.00D-01 BMatC= 9.46D-10 BMatP= 1.91D-08
 IDIUse=1 WtCom= 1.00D+00 WtEn= 0.00D+00
 Coeff-Com: -0.160D-01 0.861D-01 0.233D+00 0.697D+00
 Coeff:     -0.160D-01 0.861D-01 0.233D+00 0.697D+00
 Gap=     0.338 Goal=   None    Shift=    0.000
 RMSDP=4.07D-07 MaxDP=7.94D-06 DE=-1.85D-08 OVMax= 9.57D-06

 Cycle  12  Pass 1  IDiag  1:
 E= -1556.49963281372     Delta-E=       -0.000000000957 Rises=F Damp=F
 DIIS: error= 4.12D-07 at cycle   5 NSaved=   5.
 NSaved= 5 IEnMin= 5 EnMin= -1556.49963281372     IErMin= 5 ErrMin= 4.12D-07
 ErrMax= 4.12D-07  0.00D+00 EMaxC= 1.00D-01 BMatC= 4.87D-11 BMatP= 9.46D-10
 IDIUse=1 WtCom= 1.00D+00 WtEn= 0.00D+00
 Coeff-Com: -0.245D-02-0.248D-02 0.295D-01 0.207D+00 0.768D+00
 Coeff:     -0.245D-02-0.248D-02 0.295D-01 0.207D+00 0.768D+00
 Gap=     0.338 Goal=   None    Shift=    0.000
 RMSDP=9.56D-08 MaxDP=2.13D-06 DE=-9.57D-10 OVMax= 1.98D-06

 Cycle  13  Pass 1  IDiag  1:
 E= -1556.49963281376     Delta-E=       -0.000000000040 Rises=F Damp=F
 DIIS: error= 2.38D-07 at cycle   6 NSaved=   6.
 NSaved= 6 IEnMin= 6 EnMin= -1556.49963281376     IErMin= 6 ErrMin= 2.38D-07
 ErrMax= 2.38D-07  0.00D+00 EMaxC= 1.00D-01 BMatC= 1.06D-11 BMatP= 4.87D-11
 IDIUse=1 WtCom= 1.00D+00 WtEn= 0.00D+00
 Coeff-Com:  0.108D-02-0.137D-01-0.189D-01 0.742D-02 0.351D+00 0.673D+00
 Coeff:      0.108D-02-0.137D-01-0.189D-01 0.742D-02 0.351D+00 0.673D+00
 Gap=     0.338 Goal=   None    Shift=    0.000
 RMSDP=4.22D-08 MaxDP=1.06D-06 DE=-4.00D-11 OVMax= 9.95D-07

 Cycle  14  Pass 1  IDiag  1:
 E= -1556.49963281377     Delta-E=       -0.000000000011 Rises=F Damp=F
 DIIS: error= 4.67D-08 at cycle   7 NSaved=   7.
 NSaved= 7 IEnMin= 7 EnMin= -1556.49963281377     IErMin= 7 ErrMin= 4.67D-08
 ErrMax= 4.67D-08  0.00D+00 EMaxC= 1.00D-01 BMatC= 4.94D-13 BMatP= 1.06D-11
 IDIUse=1 WtCom= 1.00D+00 WtEn= 0.00D+00
 Coeff-Com:  0.544D-03-0.510D-02-0.915D-02-0.880D-02 0.798D-01 0.239D+00
 Coeff-Com:  0.704D+00
 Coeff:      0.544D-03-0.510D-02-0.915D-02-0.880D-02 0.798D-01 0.239D+00
 Coeff:      0.704D+00
 Gap=     0.338 Goal=   None    Shift=    0.000
 RMSDP=1.31D-08 MaxDP=2.51D-07 DE=-1.09D-11 OVMax= 2.53D-07

 Cycle  15  Pass 1  IDiag  1:
 E= -1556.49963281378     Delta-E=       -0.000000000004 Rises=F Damp=F
 DIIS: error= 1.98D-08 at cycle   8 NSaved=   8.
 NSaved= 8 IEnMin= 8 EnMin= -1556.49963281378     IErMin= 8 ErrMin= 1.98D-08
 ErrMax= 1.98D-08  0.00D+00 EMaxC= 1.00D-01 BMatC= 8.88D-14 BMatP= 4.94D-13
 IDIUse=1 WtCom= 1.00D+00 WtEn= 0.00D+00
 Coeff-Com:  0.104D-03-0.513D-03-0.179D-02-0.467D-02-0.815D-02 0.236D-01
 Coeff-Com:  0.309D+00 0.682D+00
 Coeff:      0.104D-03-0.513D-03-0.179D-02-0.467D-02-0.815D-02 0.236D-01
 Coeff:      0.309D+00 0.682D+00
 Gap=     0.338 Goal=   None    Shift=    0.000
 RMSDP=4.43D-09 MaxDP=1.05D-07 DE=-4.09D-12 OVMax= 1.26D-07

 SCF Done:  E(RM052X) =  -1556.49963281     A.U. after   15 cycles
            NFock= 15  Conv=0.44D-08     -V/T= 2.0036
 KE= 1.550958814003D+03 PE=-4.526600528061D+03 EE= 1.002898627760D+03
 Leave Link  502 at Thu Jul 10 14:00:40 2025, MaxMem=  2684354560 cpu:              52.9 elap:               2.9
 (Enter /apps/gaussian/g16c01/g16/l601.exe)
 Copying SCF densities to generalized density rwf, IOpCl= 0 IROHF=0.

 **********************************************************************

            Population analysis using the SCF Density.

 **********************************************************************

 Orbital symmetries:
       Occupied  (A) (A) (A) (A) (A) (A) (A) (A) (A) (A) (A) (A)
                 (A) (A) (A) (A) (A) (A) (A) (A) (A) (A) (A) (A)
                 (A) (A) (A) (A) (A) (A) (A) (A) (A) (A) (A) (A)
       Virtual   (A) (A) (A) (A) (A) (A) (A) (A) (A) (A) (A) (A)
                 (A) (A) (A) (A) (A) (A) (A) (A) (A) (A) (A) (A)
                 (A) (A) (A) (A) (A) (A) (A) (A) (A) (A) (A) (A)
                 (A) (A) (A) (A) (A) (A) (A) (A) (A) (A) (A) (A)
                 (A) (A) (A) (A) (A) (A) (A) (A) (A) (A) (A) (A)
                 (A) (A) (A) (A) (A) (A)
 The electronic state is 1-A.
 Alpha  occ. eigenvalues -- -102.81278-102.80813-102.80482 -25.36289 -10.75825
 Alpha  occ. eigenvalues --  -10.72123  -9.85846  -9.85295  -9.84960  -7.58481
 Alpha  occ. eigenvalues --   -7.57946  -7.57809  -7.57793  -7.57613  -7.57246
 Alpha  occ. eigenvalues --   -7.57244  -7.56911  -7.56907  -1.41198  -1.06014
 Alpha  occ. eigenvalues --   -1.00469  -0.95828  -0.85662  -0.71130  -0.63356
 Alpha  occ. eigenvalues --   -0.61803  -0.61495  -0.53593  -0.51143  -0.49826
 Alpha  occ. eigenvalues --   -0.44255  -0.43407  -0.42576  -0.41360  -0.39234
 Alpha  occ. eigenvalues --   -0.31834
 Alpha virt. eigenvalues --    0.02015   0.03106   0.04225   0.09907   0.22938
 Alpha virt. eigenvalues --    0.30866   0.33465   0.36720   0.41468   0.43798
 Alpha virt. eigenvalues --    0.44124   0.45385   0.46552   0.47638   0.49089
 Alpha virt. eigenvalues --    0.52132   0.53663   0.54292   0.58478   0.58753
 Alpha virt. eigenvalues --    0.64950   0.67696   0.79495   0.82822   0.83482
 Alpha virt. eigenvalues --    0.87153   0.88194   0.89986   0.90917   0.91205
 Alpha virt. eigenvalues --    0.92161   0.92309   0.99045   1.01549   1.05140
 Alpha virt. eigenvalues --    1.05956   1.10243   1.15203   1.17490   1.19025
 Alpha virt. eigenvalues --    1.30369   1.33210   1.38947   1.45358   1.49948
 Alpha virt. eigenvalues --    1.56596   1.82089   1.83632   1.88008   1.88021
 Alpha virt. eigenvalues --    1.95815   2.03262   2.06063   2.22193   2.29636
 Alpha virt. eigenvalues --    2.36852   2.54345   2.67542   2.85800   3.08673
 Alpha virt. eigenvalues --    4.00254   4.15029   4.28477   4.34742   4.42382
 Alpha virt. eigenvalues --    4.73576
          Condensed to atoms (all electrons):
               1          2          3          4          5          6
     1  C    5.575860   0.418370   0.250150   0.235778  -0.062608  -0.097523
     2  C    0.418370   4.887223  -0.079356  -0.080321   0.295417   0.299163
     3  Cl   0.250150  -0.079356  16.784345  -0.063379   0.001180   0.003691
     4  Cl   0.235778  -0.080321  -0.063379  16.803604   0.005502   0.003271
     5  F   -0.062608   0.295417   0.001180   0.005502   9.032302  -0.043009
     6  Cl  -0.097523   0.299163   0.003691   0.003271  -0.043009  16.744014
 Mulliken charges:
               1
     1  C   -0.320026
     2  C    0.259505
     3  Cl   0.103368
     4  Cl   0.095545
     5  F   -0.228784
     6  Cl   0.090392
 Sum of Mulliken charges =  -0.00000
 Mulliken charges with hydrogens summed into heavy atoms:
               1
     1  C   -0.320026
     2  C    0.259505
     3  Cl   0.103368
     4  Cl   0.095545
     5  F   -0.228784
     6  Cl   0.090392
 Electronic spatial extent (au):  <R**2>=           1071.7759
 Charge=             -0.0000 electrons
 Dipole moment (field-independent basis, Debye):
    X=             -0.3535    Y=              0.3089    Z=             -0.0001  Tot=              0.4694
 Quadrupole moment (field-independent basis, Debye-Ang):
   XX=            -51.8252   YY=            -53.1874   ZZ=            -53.3702
   XY=             -0.8912   XZ=              0.0003   YZ=             -0.0001
 Traceless Quadrupole moment (field-independent basis, Debye-Ang):
   XX=              0.9690   YY=             -0.3931   ZZ=             -0.5759
   XY=             -0.8912   XZ=              0.0003   YZ=             -0.0001
 Octapole moment (field-independent basis, Debye-Ang**2):
  XXX=             -6.8266  YYY=             -2.0039  ZZZ=              0.0001  XYY=              0.9686
  XXY=             -3.3124  XXZ=             -0.0001  XZZ=             -1.8418  YZZ=             -3.8883
  YYZ=             -0.0003  XYZ=             -0.0002
 Hexadecapole moment (field-independent basis, Debye-Ang**3):
 XXXX=           -732.9483 YYYY=           -433.1939 ZZZZ=            -55.1317 XXXY=            -15.1023
 XXXZ=             -0.0393 YYYX=              7.4309 YYYZ=              0.0146 ZZZX=             -0.0493
 ZZZY=              0.0171 XXYY=           -199.2821 XXZZ=           -141.7700 YYZZ=            -86.0881
 XXYZ=              0.0018 YYXZ=             -0.0150 ZZXY=              2.8076
 N-N= 4.162434534844D+02 E-N=-4.526600528528D+03  KE= 1.550958814003D+03
 No NMR shielding tensors so no spin-rotation constants.
 Leave Link  601 at Thu Jul 10 14:00:41 2025, MaxMem=  2684354560 cpu:              17.8 elap:               1.1
 (Enter /apps/gaussian/g16c01/g16/l9999.exe)
 Unable to Open any file for archive entry.
 1\1\GINC-GADI-CPU-CLX-0534\SP\RM052X\6-31G(d)\C2Cl3F1\YR9300\10-Jul-20
 25\0\\#P M052X/6-31G*\\Cl3F1_oct_vaccum_M05-2x\\0,1\C,0,0.50902,0.0792
 72,0.000059\C,0,-0.658744,-0.564563,-0.000047\Cl,0,0.639479,1.800805,-
 0.000063\Cl,0,1.996918,-0.808087,0.000335\F,0,-0.71266,-1.891548,0.000
 035\Cl,0,-2.206262,0.179969,-0.000294\\Version=ES64L-G16RevC.01\State=
 1-A\HF=-1556.4996328\RMSD=4.427e-09\Dipole=-0.1390782,0.1215154,-0.000
 0258\Quadrupole=0.7204609,-0.2922736,-0.4281873,-0.6626041,0.0001968,-
 0.0001112\PG=C01 [X(C2Cl3F1)]\\@
 The archive entry for this job was punched.


 You never know when you're making a memory.
                        -- Rickie Lee Jones
 Job cpu time:       0 days  0 hours  1 minutes 47.6 seconds.
 Elapsed time:       0 days  0 hours  0 minutes  6.7 seconds.
 File lengths (MBytes):  RWF=     10 Int=      0 D2E=      0 Chk=      2 Scr=      1
 Normal termination of Gaussian 16 at Thu Jul 10 14:00:41 2025.
