 Entering Gaussian System, Link 0=g09
 Initial command:
 /apps/z_install_tree/linux-rocky8-ivybridge/gcc-12.2.0/gaussian-09-D.01-wczn3gur5lpur3omlkzwa2l5ecyxp5ef/g09/l1.exe "/srv/scratch/z5112331/Gaussian/Cl4_reference/12React12/Gau-3460874.inp" -scrdir="/srv/scratch/z5112331/Gaussian/Cl4_reference/12React12/"
 Entering Link 1 = /apps/z_install_tree/linux-rocky8-ivybridge/gcc-12.2.0/gaussian-09-D.01-wczn3gur5lpur3omlkzwa2l5ecyxp5ef/g09/l1.exe PID=   3460879.
  
 Copyright (c) 1988,1990,1992,1993,1995,1998,2003,2009,2013,
            Gaussian, Inc.  All Rights Reserved.
  
 This is part of the Gaussian(R) 09 program.  It is based on
 the Gaussian(R) 03 system (copyright 2003, Gaussian, Inc.),
 the Gaussian(R) 98 system (copyright 1998, Gaussian, Inc.),
 the Gaussian(R) 94 system (copyright 1995, Gaussian, Inc.),
 the Gaussian 92(TM) system (copyright 1992, Gaussian, Inc.),
 the Gaussian 90(TM) system (copyright 1990, Gaussian, Inc.),
 the Gaussian 88(TM) system (copyright 1988, Gaussian, Inc.),
 the Gaussian 86(TM) system (copyright 1986, Carnegie Mellon
 University), and the Gaussian 82(TM) system (copyright 1983,
 Carnegie Mellon University). Gaussian is a federally registered
 trademark of Gaussian, Inc.
  
 This software contains proprietary and confidential information,
 including trade secrets, belonging to Gaussian, Inc.
  
 This software is provided under written license and may be
 used, copied, transmitted, or stored only in accord with that
 written license.
  
 The following legend is applicable only to US Government
 contracts under FAR:
  
                    RESTRICTED RIGHTS LEGEND
  
 Use, reproduction and disclosure by the US Government is
 subject to restrictions as set forth in subparagraphs (a)
 and (c) of the Commercial Computer Software - Restricted
 Rights clause in FAR 52.227-19.
  
 Gaussian, Inc.
 340 Quinnipiac St., Bldg. 40, Wallingford CT 06492
  
  
 ---------------------------------------------------------------
 Warning -- This program may not be used in any manner that
 competes with the business of Gaussian, Inc. or will provide
 assistance to any competitor of Gaussian, Inc.  The licensee
 of this program is prohibited from giving any competitor of
 Gaussian, Inc. access to this program.  By using this program,
 the user acknowledges that Gaussian, Inc. is engaged in the
 business of creating and licensing software in the field of
 computational chemistry and represents and warrants to the
 licensee that it is not a competitor of Gaussian, Inc. and that
 it will not use this program in any manner prohibited above.
 ---------------------------------------------------------------
  

 Cite this work as:
 Gaussian 09, Revision D.01,
 M. J. Frisch, G. W. Trucks, H. B. Schlegel, G. E. Scuseria, 
 M. A. Robb, J. R. Cheeseman, G. Scalmani, V. Barone, B. Mennucci, 
 G. A. Petersson, H. Nakatsuji, M. Caricato, X. Li, H. P. Hratchian, 
 A. F. Izmaylov, J. Bloino, G. Zheng, J. L. Sonnenberg, M. Hada, 
 M. Ehara, K. Toyota, R. Fukuda, J. Hasegawa, M. Ishida, T. Nakajima, 
 Y. Honda, O. Kitao, H. Nakai, T. Vreven, J. A. Montgomery, Jr., 
 J. E. Peralta, F. Ogliaro, M. Bearpark, J. J. Heyd, E. Brothers, 
 K. N. Kudin, V. N. Staroverov, T. Keith, R. Kobayashi, J. Normand, 
 K. Raghavachari, A. Rendell, J. C. Burant, S. S. Iyengar, J. Tomasi, 
 M. Cossi, N. Rega, J. M. Millam, M. Klene, J. E. Knox, J. B. Cross, 
 V. Bakken, C. Adamo, J. Jaramillo, R. Gomperts, R. E. Stratmann, 
 O. Yazyev, A. J. Austin, R. Cammi, C. Pomelli, J. W. Ochterski, 
 R. L. Martin, K. Morokuma, V. G. Zakrzewski, G. A. Voth, 
 P. Salvador, J. J. Dannenberg, S. Dapprich, A. D. Daniels, 
 O. Farkas, J. B. Foresman, J. V. Ortiz, J. Cioslowski, 
 and D. J. Fox, Gaussian, Inc., Wallingford CT, 2013.
 
 ******************************************
 Gaussian 09:  ES64L-G09RevD.01 24-Apr-2013
                27-Aug-2024 
 ******************************************
 %chk=Reactp_out_freq12_lsmd.chk
 %mem=200GB
 %nprocshared=20
 Will use up to   20 processors via shared memory.
 ----------------------------------------------------------------------
 #p b3lyp/gen nosymm scrf=(smd,read) guess=read em=gd3 int=ultrafine ps
 eudo=read scf=xqc scfcyc=96
 ----------------------------------------------------------------------
 1/38=1,40=2/1;
 2/12=2,15=1,17=6,18=5,40=1/2;
 3/5=7,11=2,16=1,17=8,25=1,30=1,70=32203,72=1,74=-5,75=-5,116=-2,124=31/1,2,3;
 4/5=1/1;
 5/5=2,7=96,8=3,13=1,38=6/2,8;
 6/7=2,8=2,9=2,10=2,28=1/1;
 99/5=1,9=1/99;
 Leave Link    1 at Tue Aug 27 05:27:11 2024, MaxMem= 26843545600 cpu:         3.2
 (Enter /apps/z_install_tree/linux-rocky8-ivybridge/gcc-12.2.0/gaussian-09-D.01-wczn3gur5lpur3omlkzwa2l5ecyxp5ef/g09/l101.exe)
 ---------------------
 Reactp_out_freq12_smd
 ---------------------
 Symbolic Z-matrix:
 Charge =  1 Multiplicity = 2
 C                     7.45731  -4.40996   3.94636 
 C                     6.5854   -3.30883   4.58296 
 C                     5.76446  -2.47941   3.62077 
 C                     6.03528  -1.12144   3.41087 
 C                     4.66725  -3.04776   2.95544 
 C                     5.22629  -0.34309   2.57941 
 C                     3.85376  -2.27749   2.12574 
 C                     4.12753  -0.91922   1.93985 
 C                    -3.49814   7.18852   1.5448 
 C                    -2.17907   6.5208    1.1234 
 O                    -2.10031   6.41774  -0.32668 
 C                    -2.03421   5.10779   1.6735 
 C                    -6.71152   2.92776   5.38788 
 C                    -5.26734   2.59439   5.81864 
 C                    -4.45196   1.94616   4.72344 
 C                    -4.831     0.68409   4.24329 
 C                    -3.31515   2.53495   4.15841 
 C                    -4.11268   0.03103   3.24889 
 C                    -2.57315   1.8886    3.16958 
 C                    -2.94524   0.61      2.69222 
 O                    -2.2592   -0.01201   1.73503 
 C                    -4.04528  -5.53793   3.75234 
 C                    -2.88912  -4.5351    3.80312 
 C                    -3.06744  -3.35662   2.84585 
 O                    -4.07488  -3.27074   2.12281 
 N                    -2.05223  -2.47813   2.78438 
 C                    -7.76133   1.44158  -2.16768 
 C                    -7.31127   1.80588  -0.74111 
 C                    -6.5758    3.14881  -0.6659 
 C                    -5.69033   3.25529   0.58516 
 N                    -4.55174   2.3376    0.54042 
 C                    -3.4807    2.48713  -0.25322 
 N                    -3.38165   3.57911  -1.05965 
 N                    -2.53183   1.55619  -0.29228 
 C                     10.03595   5.62993   0.67427 
 C                     8.69768   5.12102   1.22312 
 C                     7.86007   4.37463   0.22561 
 C                     8.16166   4.10189  -1.08432 
 C                     6.56669   3.7842    0.47358 
 N                     7.13253   3.37821  -1.67053 
 C                     6.14216   3.16621  -0.73601 
 C                     5.72863   3.716     1.60037 
 C                     4.92493   2.48852  -0.83613 
 C                     4.5141    3.04216   1.50526 
 C                     4.12194   2.42675   0.2981 
 Co                    1.08506  -1.61202  -2.02821 
 C                    -1.50979  -2.71713  -2.36105 
 C                    -2.99277  -2.20781  -2.32266 
 C                    -2.88255  -0.87271  -3.16075 
 C                    -1.42721  -0.47784  -2.98437 
 C                    -0.88178   0.83074  -3.31195 
 C                     0.47214   1.06889  -3.26124 
 C                     1.25509   2.36224  -3.65166 
 C                     2.61812   1.7281   -4.05997 
 C                     2.65359   0.50258  -3.19061 
 C                     3.83341  -0.1467   -2.87359 
 C                     3.96122  -1.34692  -2.18786 
 C                     5.31664  -1.97111  -1.93625 
 C                     4.92405  -3.33705  -1.28028 
 C                     3.40283  -3.26677  -1.16195 
 C                     2.6275   -4.24279  -0.56755 
 C                     1.18697  -4.21372  -0.64129 
 C                     0.20423  -5.26588  -0.0749 
 C                    -1.10301  -4.89081  -0.84915 
 C                    -0.9303   -3.38913  -1.09651 
 C                    -1.17825  -3.56383  -3.60813 
 N                    -0.72446  -1.45218  -2.4774 
 N                     1.41341   0.10469  -2.85874 
 N                     2.93127  -2.09587  -1.7497 
 N                     0.53752  -3.21903  -1.1919 
 C                    -3.99321  -3.23904  -2.87049 
 C                    -3.40491  -1.84867  -0.87354 
 C                    -4.81399  -1.27956  -0.76673 
 O                    -5.32859  -0.60892  -1.68011 
 N                    -5.45554  -1.55219   0.37969 
 C                    -3.34596  -0.94806  -4.62605 
 C                    -1.87403   1.89219  -3.74493 
 C                     0.71433   3.25161  -4.78378 
 C                     1.56569   3.25456  -2.39765 
 C                     0.37692   3.97296  -1.79116 
 O                    -0.58788   3.32918  -1.35256 
 N                     0.3919    5.3171   -1.73109 
 C                     2.72385   1.29086  -5.53583 
 C                     6.16466  -1.11407  -0.97438 
 C                     6.05037  -2.07774  -3.28549 
 C                     5.40461  -4.5806   -2.05156 
 C                     3.30128  -5.35974   0.20758 
 C                     0.05169  -5.03183   1.44541 
 C                     0.52645  -6.74514  -0.36124 
 C                    -2.39993  -5.32441  -0.16838 
 Cl                    1.1043    2.11318   3.90491 
 C                     0.83901   1.13023   2.50812 
 C                     0.83196  -0.21458   2.5505 
 Cl                    0.54741   2.00001   1.04084 
 Cl                    0.64997  -1.18647   1.12938 
 H                     7.22471  -2.64793   5.17894 
 H                     5.89832  -3.78607   5.29404 
 H                     6.88014  -0.66384   3.91977 
 H                     4.43333  -4.09816   3.11558 
 H                     5.44836   0.70872   2.42869 
 H                     2.99808  -2.72688   1.63654 
 H                     3.49438  -0.31613   1.29732 
 H                     8.28635  -3.99129   3.36879 
 H                    -1.32985   7.12674   1.47219 
 H                    -1.20591   4.58187   1.19126 
 H                    -2.94291   4.52054   1.52399 
 H                    -1.84169   5.14356   2.74924 
 H                    -2.3316    7.28145  -0.69573 
 H                    -4.30121   6.82637   0.89149 
 H                    -4.76545   3.49763   6.18386 
 H                    -5.3082    1.90704   6.67361 
 H                    -2.9957    3.51571   4.50728 
 H                    -5.7085    0.19763   4.66588 
 H                    -1.69487   2.36351   2.74776 
 H                    -4.42322  -0.94684   2.90194 
 H                    -7.07749   2.19591   4.66035 
 H                    -2.74314  -4.13868   4.81573 
 H                    -1.9414   -5.01939   3.53907 
 H                    -2.15221  -1.57148   2.26345 
 H                    -1.32392  -2.52735   3.48208 
 H                    -4.49891  -5.53295   2.75857 
 H                    -8.18066   1.82995  -0.07234 
 H                    -6.64561   1.01468  -0.38652 
 H                    -7.29234   3.97902  -0.66998 
 H                    -5.94621   3.27406  -1.55489 
 H                    -5.33051   4.28323   0.73564 
 H                    -6.25477   3.00025   1.48601 
 H                    -4.54331   1.5464    1.17468 
 H                    -1.68492   1.82613  -0.77761 
 H                    -2.40693   0.85687   0.52739 
 H                    -3.94004   4.38532  -0.82467 
 H                    -2.42128   3.81451  -1.30366 
 H                    -6.87687   1.19741  -2.76615 
 H                     8.11955   5.96843   1.61771 
 H                     8.88492   4.46975   2.0885 
 H                     9.03786   4.36563  -1.65807 
 H                     6.02848   4.1836    2.5339 
 H                     3.85923   2.97834   2.36954 
 H                     4.62025   2.00982  -1.75767 
 H                     3.18114   1.88891   0.25651 
 H                     9.88691   6.34888  -0.13802 
 H                    -3.51069  -0.12355  -2.68006 
 H                     3.44916   2.40503  -3.83526 
 H                     4.74589   0.31973  -3.22095 
 H                     5.34547  -3.3718   -0.2687 
 H                    -1.0311   -5.403    -1.81522 
 H                    -1.25516  -2.82475  -0.21759 
 H                    -1.40377  -3.0125   -4.5209 
 H                    -1.74064  -4.49866  -3.62622 
 H                    -0.11111  -3.80612  -3.61751 
 H                    -5.00383  -2.82698  -2.84943 
 H                    -3.78274  -3.52941  -3.90067 
 H                    -3.98754  -4.14337  -2.25957 
 H                    -2.7303   -1.10905  -0.43218 
 H                    -3.35548  -2.7255   -0.22692 
 H                    -6.39583  -1.2016    0.497 
 H                    -3.23884   0.01883  -5.12131 
 H                    -2.79374  -1.68466  -5.21473 
 H                    -1.54271   2.8858   -3.46778 
 H                    -2.0434    1.87911  -4.82694 
 H                    -2.83853   1.7495   -3.25657 
 H                     1.52052   3.89957  -5.14276 
 H                    -0.09757   3.90214  -4.45734 
 H                     0.35003   2.66311  -5.62772 
 H                     2.33928   3.97405  -2.68515 
 H                     1.99179   2.63693  -1.60143 
 H                    -0.37844   5.78308  -1.24536 
 H                     2.72999   2.1493   -6.21121 
 H                     1.88956   0.63801  -5.81148 
 H                     5.67616  -0.99485  -0.00759 
 H                     6.35029  -0.11627  -1.38287 
 H                     7.13251  -1.60003  -0.81178 
 H                     5.45967  -2.5979   -4.04421 
 H                     6.28586  -1.08255  -3.67048 
 H                     7.00104  -2.60516  -3.17001 
 H                     6.4917   -4.56398  -2.16209 
 H                     5.14826  -5.50191  -1.53063 
 H                     4.29233  -5.06109   0.55055 
 H                     2.73215  -5.6091    1.10341 
 H                     3.40593  -6.28258  -0.37174 
 H                    -0.35597  -4.04336   1.66908 
 H                    -0.62452  -5.7828    1.86274 
 H                     1.00753  -5.12731   1.96569 
 H                    -0.37569  -7.3423   -0.20006 
 H                     1.29916  -7.14963   0.29408 
 H                    -3.25232  -5.22472  -0.84206 
 H                    -2.62327  -4.73604   0.72101 
 Cl                    1.04107  -1.10801   4.01702 
 H                     4.96043  -4.62912  -3.04938 
 H                     0.84383  -6.89141  -1.39884 
 H                    -2.35262  -6.37761   0.12488 
 H                    -4.40546  -1.21184  -4.65218 
 H                     3.65184   0.73343  -5.68982 
 H                    -8.28011   2.28473  -2.63281 
 H                    -4.83108  -5.29008   4.46983 
 H                    -3.68985  -6.54848   3.95356 
 H                    -7.38638   2.87888   6.2424 
 H                    -6.78505   3.91725   4.92578 
 H                    -3.4616    8.27975   1.47733 
 H                    -3.76888   6.89765   2.5599 
 H                     6.86839  -5.05559   3.28643 
 H                     7.8501   -5.01948   4.76024 
 H                     10.64455   4.80437   0.29005 
 H                     10.60021   6.12056   1.4672 
 H                     7.12676   3.0469   -2.62043 
 H                     1.19133   5.8525   -2.03053 
 H                    -5.02009  -2.13764   1.09747 
 C                    -8.74558   0.28113  -2.13908 
 O                    -9.95407   0.43091  -2.28765 
 N                    -8.15931  -0.91413  -1.84915 
 H                    -7.14327  -0.94978  -1.86831 
 C                    -8.93099  -2.13128  -1.78492 
 H                    -8.47082  -2.83022  -1.07894 
 H                    -9.94143  -1.89039  -1.44898 
 H                    -9.01376  -2.62969  -2.76069 
 
 NAtoms=    215 NQM=      215 NQMF=       0 NMMI=      0 NMMIF=      0
                NMic=       0 NMicF=      0.
                    Isotopes and Nuclear Properties:
 (Nuclear quadrupole moments (NQMom) in fm**2, nuclear magnetic moments (NMagM)
  in nuclear magnetons)

  Atom         1           2           3           4           5           6           7           8           9          10
 IAtWgt=          12          12          12          12          12          12          12          12          12          12
 AtmWgt=  12.0000000  12.0000000  12.0000000  12.0000000  12.0000000  12.0000000  12.0000000  12.0000000  12.0000000  12.0000000
 NucSpn=           0           0           0           0           0           0           0           0           0           0
 AtZEff=   0.0000000   0.0000000   0.0000000   0.0000000   0.0000000   0.0000000   0.0000000   0.0000000   0.0000000   0.0000000
 NQMom=    0.0000000   0.0000000   0.0000000   0.0000000   0.0000000   0.0000000   0.0000000   0.0000000   0.0000000   0.0000000
 NMagM=    0.0000000   0.0000000   0.0000000   0.0000000   0.0000000   0.0000000   0.0000000   0.0000000   0.0000000   0.0000000
 AtZNuc=   6.0000000   6.0000000   6.0000000   6.0000000   6.0000000   6.0000000   6.0000000   6.0000000   6.0000000   6.0000000

  Atom        11          12          13          14          15          16          17          18          19          20
 IAtWgt=          16          12          12          12          12          12          12          12          12          12
 AtmWgt=  15.9949146  12.0000000  12.0000000  12.0000000  12.0000000  12.0000000  12.0000000  12.0000000  12.0000000  12.0000000
 NucSpn=           0           0           0           0           0           0           0           0           0           0
 AtZEff=   0.0000000   0.0000000   0.0000000   0.0000000   0.0000000   0.0000000   0.0000000   0.0000000   0.0000000   0.0000000
 NQMom=    0.0000000   0.0000000   0.0000000   0.0000000   0.0000000   0.0000000   0.0000000   0.0000000   0.0000000   0.0000000
 NMagM=    0.0000000   0.0000000   0.0000000   0.0000000   0.0000000   0.0000000   0.0000000   0.0000000   0.0000000   0.0000000
 AtZNuc=   8.0000000   6.0000000   6.0000000   6.0000000   6.0000000   6.0000000   6.0000000   6.0000000   6.0000000   6.0000000

  Atom        21          22          23          24          25          26          27          28          29          30
 IAtWgt=          16          12          12          12          16          14          12          12          12          12
 AtmWgt=  15.9949146  12.0000000  12.0000000  12.0000000  15.9949146  14.0030740  12.0000000  12.0000000  12.0000000  12.0000000
 NucSpn=           0           0           0           0           0           2           0           0           0           0
 AtZEff=   0.0000000   0.0000000   0.0000000   0.0000000   0.0000000   0.0000000   0.0000000   0.0000000   0.0000000   0.0000000
 NQMom=    0.0000000   0.0000000   0.0000000   0.0000000   0.0000000   2.0440000   0.0000000   0.0000000   0.0000000   0.0000000
 NMagM=    0.0000000   0.0000000   0.0000000   0.0000000   0.0000000   0.4037610   0.0000000   0.0000000   0.0000000   0.0000000
 AtZNuc=   8.0000000   6.0000000   6.0000000   6.0000000   8.0000000   7.0000000   6.0000000   6.0000000   6.0000000   6.0000000

  Atom        31          32          33          34          35          36          37          38          39          40
 IAtWgt=          14          12          14          14          12          12          12          12          12          14
 AtmWgt=  14.0030740  12.0000000  14.0030740  14.0030740  12.0000000  12.0000000  12.0000000  12.0000000  12.0000000  14.0030740
 NucSpn=           2           0           2           2           0           0           0           0           0           2
 AtZEff=   0.0000000   0.0000000   0.0000000   0.0000000   0.0000000   0.0000000   0.0000000   0.0000000   0.0000000   0.0000000
 NQMom=    2.0440000   0.0000000   2.0440000   2.0440000   0.0000000   0.0000000   0.0000000   0.0000000   0.0000000   2.0440000
 NMagM=    0.4037610   0.0000000   0.4037610   0.4037610   0.0000000   0.0000000   0.0000000   0.0000000   0.0000000   0.4037610
 AtZNuc=   7.0000000   6.0000000   7.0000000   7.0000000   6.0000000   6.0000000   6.0000000   6.0000000   6.0000000   7.0000000

  Atom        41          42          43          44          45          46          47          48          49          50
 IAtWgt=          12          12          12          12          12          59          12          12          12          12
 AtmWgt=  12.0000000  12.0000000  12.0000000  12.0000000  12.0000000  58.9331978  12.0000000  12.0000000  12.0000000  12.0000000
 NucSpn=           0           0           0           0           0           7           0           0           0           0
 AtZEff=   0.0000000   0.0000000   0.0000000   0.0000000   0.0000000   0.0000000   0.0000000   0.0000000   0.0000000   0.0000000
 NQMom=    0.0000000   0.0000000   0.0000000   0.0000000   0.0000000  42.0000000   0.0000000   0.0000000   0.0000000   0.0000000
 NMagM=    0.0000000   0.0000000   0.0000000   0.0000000   0.0000000   4.6270000   0.0000000   0.0000000   0.0000000   0.0000000
 AtZNuc=   6.0000000   6.0000000   6.0000000   6.0000000   6.0000000  27.0000000   6.0000000   6.0000000   6.0000000   6.0000000

  Atom        51          52          53          54          55          56          57          58          59          60
 IAtWgt=          12          12          12          12          12          12          12          12          12          12
 AtmWgt=  12.0000000  12.0000000  12.0000000  12.0000000  12.0000000  12.0000000  12.0000000  12.0000000  12.0000000  12.0000000
 NucSpn=           0           0           0           0           0           0           0           0           0           0
 AtZEff=   0.0000000   0.0000000   0.0000000   0.0000000   0.0000000   0.0000000   0.0000000   0.0000000   0.0000000   0.0000000
 NQMom=    0.0000000   0.0000000   0.0000000   0.0000000   0.0000000   0.0000000   0.0000000   0.0000000   0.0000000   0.0000000
 NMagM=    0.0000000   0.0000000   0.0000000   0.0000000   0.0000000   0.0000000   0.0000000   0.0000000   0.0000000   0.0000000
 AtZNuc=   6.0000000   6.0000000   6.0000000   6.0000000   6.0000000   6.0000000   6.0000000   6.0000000   6.0000000   6.0000000

  Atom        61          62          63          64          65          66          67          68          69          70
 IAtWgt=          12          12          12          12          12          12          14          14          14          14
 AtmWgt=  12.0000000  12.0000000  12.0000000  12.0000000  12.0000000  12.0000000  14.0030740  14.0030740  14.0030740  14.0030740
 NucSpn=           0           0           0           0           0           0           2           2           2           2
 AtZEff=   0.0000000   0.0000000   0.0000000   0.0000000   0.0000000   0.0000000   0.0000000   0.0000000   0.0000000   0.0000000
 NQMom=    0.0000000   0.0000000   0.0000000   0.0000000   0.0000000   0.0000000   2.0440000   2.0440000   2.0440000   2.0440000
 NMagM=    0.0000000   0.0000000   0.0000000   0.0000000   0.0000000   0.0000000   0.4037610   0.4037610   0.4037610   0.4037610
 AtZNuc=   6.0000000   6.0000000   6.0000000   6.0000000   6.0000000   6.0000000   7.0000000   7.0000000   7.0000000   7.0000000

  Atom        71          72          73          74          75          76          77          78          79          80
 IAtWgt=          12          12          12          16          14          12          12          12          12          12
 AtmWgt=  12.0000000  12.0000000  12.0000000  15.9949146  14.0030740  12.0000000  12.0000000  12.0000000  12.0000000  12.0000000
 NucSpn=           0           0           0           0           2           0           0           0           0           0
 AtZEff=   0.0000000   0.0000000   0.0000000   0.0000000   0.0000000   0.0000000   0.0000000   0.0000000   0.0000000   0.0000000
 NQMom=    0.0000000   0.0000000   0.0000000   0.0000000   2.0440000   0.0000000   0.0000000   0.0000000   0.0000000   0.0000000
 NMagM=    0.0000000   0.0000000   0.0000000   0.0000000   0.4037610   0.0000000   0.0000000   0.0000000   0.0000000   0.0000000
 AtZNuc=   6.0000000   6.0000000   6.0000000   8.0000000   7.0000000   6.0000000   6.0000000   6.0000000   6.0000000   6.0000000

  Atom        81          82          83          84          85          86          87          88          89          90
 IAtWgt=          16          14          12          12          12          12          12          12          12          12
 AtmWgt=  15.9949146  14.0030740  12.0000000  12.0000000  12.0000000  12.0000000  12.0000000  12.0000000  12.0000000  12.0000000
 NucSpn=           0           2           0           0           0           0           0           0           0           0
 AtZEff=   0.0000000   0.0000000   0.0000000   0.0000000   0.0000000   0.0000000   0.0000000   0.0000000   0.0000000   0.0000000
 NQMom=    0.0000000   2.0440000   0.0000000   0.0000000   0.0000000   0.0000000   0.0000000   0.0000000   0.0000000   0.0000000
 NMagM=    0.0000000   0.4037610   0.0000000   0.0000000   0.0000000   0.0000000   0.0000000   0.0000000   0.0000000   0.0000000
 AtZNuc=   8.0000000   7.0000000   6.0000000   6.0000000   6.0000000   6.0000000   6.0000000   6.0000000   6.0000000   6.0000000

  Atom        91          92          93          94          95          96          97          98          99         100
 IAtWgt=          35          12          12          35          35           1           1           1           1           1
 AtmWgt=  34.9688527  12.0000000  12.0000000  34.9688527  34.9688527   1.0078250   1.0078250   1.0078250   1.0078250   1.0078250
 NucSpn=           3           0           0           3           3           1           1           1           1           1
 AtZEff=   0.0000000   0.0000000   0.0000000   0.0000000   0.0000000   0.0000000   0.0000000   0.0000000   0.0000000   0.0000000
 NQMom=   -8.1650000   0.0000000   0.0000000  -8.1650000  -8.1650000   0.0000000   0.0000000   0.0000000   0.0000000   0.0000000
 NMagM=    0.8218740   0.0000000   0.0000000   0.8218740   0.8218740   2.7928460   2.7928460   2.7928460   2.7928460   2.7928460
 AtZNuc=  17.0000000   6.0000000   6.0000000  17.0000000  17.0000000   1.0000000   1.0000000   1.0000000   1.0000000   1.0000000

  Atom       101         102         103         104         105         106         107         108         109         110
 IAtWgt=           1           1           1           1           1           1           1           1           1           1
 AtmWgt=   1.0078250   1.0078250   1.0078250   1.0078250   1.0078250   1.0078250   1.0078250   1.0078250   1.0078250   1.0078250
 NucSpn=           1           1           1           1           1           1           1           1           1           1
 AtZEff=   0.0000000   0.0000000   0.0000000   0.0000000   0.0000000   0.0000000   0.0000000   0.0000000   0.0000000   0.0000000
 NQMom=    0.0000000   0.0000000   0.0000000   0.0000000   0.0000000   0.0000000   0.0000000   0.0000000   0.0000000   0.0000000
 NMagM=    2.7928460   2.7928460   2.7928460   2.7928460   2.7928460   2.7928460   2.7928460   2.7928460   2.7928460   2.7928460
 AtZNuc=   1.0000000   1.0000000   1.0000000   1.0000000   1.0000000   1.0000000   1.0000000   1.0000000   1.0000000   1.0000000

  Atom       111         112         113         114         115         116         117         118         119         120
 IAtWgt=           1           1           1           1           1           1           1           1           1           1
 AtmWgt=   1.0078250   1.0078250   1.0078250   1.0078250   1.0078250   1.0078250   1.0078250   1.0078250   1.0078250   1.0078250
 NucSpn=           1           1           1           1           1           1           1           1           1           1
 AtZEff=   0.0000000   0.0000000   0.0000000   0.0000000   0.0000000   0.0000000   0.0000000   0.0000000   0.0000000   0.0000000
 NQMom=    0.0000000   0.0000000   0.0000000   0.0000000   0.0000000   0.0000000   0.0000000   0.0000000   0.0000000   0.0000000
 NMagM=    2.7928460   2.7928460   2.7928460   2.7928460   2.7928460   2.7928460   2.7928460   2.7928460   2.7928460   2.7928460
 AtZNuc=   1.0000000   1.0000000   1.0000000   1.0000000   1.0000000   1.0000000   1.0000000   1.0000000   1.0000000   1.0000000

  Atom       121         122         123         124         125         126         127         128         129         130
 IAtWgt=           1           1           1           1           1           1           1           1           1           1
 AtmWgt=   1.0078250   1.0078250   1.0078250   1.0078250   1.0078250   1.0078250   1.0078250   1.0078250   1.0078250   1.0078250
 NucSpn=           1           1           1           1           1           1           1           1           1           1
 AtZEff=   0.0000000   0.0000000   0.0000000   0.0000000   0.0000000   0.0000000   0.0000000   0.0000000   0.0000000   0.0000000
 NQMom=    0.0000000   0.0000000   0.0000000   0.0000000   0.0000000   0.0000000   0.0000000   0.0000000   0.0000000   0.0000000
 NMagM=    2.7928460   2.7928460   2.7928460   2.7928460   2.7928460   2.7928460   2.7928460   2.7928460   2.7928460   2.7928460
 AtZNuc=   1.0000000   1.0000000   1.0000000   1.0000000   1.0000000   1.0000000   1.0000000   1.0000000   1.0000000   1.0000000

  Atom       131         132         133         134         135         136         137         138         139         140
 IAtWgt=           1           1           1           1           1           1           1           1           1           1
 AtmWgt=   1.0078250   1.0078250   1.0078250   1.0078250   1.0078250   1.0078250   1.0078250   1.0078250   1.0078250   1.0078250
 NucSpn=           1           1           1           1           1           1           1           1           1           1
 AtZEff=   0.0000000   0.0000000   0.0000000   0.0000000   0.0000000   0.0000000   0.0000000   0.0000000   0.0000000   0.0000000
 NQMom=    0.0000000   0.0000000   0.0000000   0.0000000   0.0000000   0.0000000   0.0000000   0.0000000   0.0000000   0.0000000
 NMagM=    2.7928460   2.7928460   2.7928460   2.7928460   2.7928460   2.7928460   2.7928460   2.7928460   2.7928460   2.7928460
 AtZNuc=   1.0000000   1.0000000   1.0000000   1.0000000   1.0000000   1.0000000   1.0000000   1.0000000   1.0000000   1.0000000

  Atom       141         142         143         144         145         146         147         148         149         150
 IAtWgt=           1           1           1           1           1           1           1           1           1           1
 AtmWgt=   1.0078250   1.0078250   1.0078250   1.0078250   1.0078250   1.0078250   1.0078250   1.0078250   1.0078250   1.0078250
 NucSpn=           1           1           1           1           1           1           1           1           1           1
 AtZEff=   0.0000000   0.0000000   0.0000000   0.0000000   0.0000000   0.0000000   0.0000000   0.0000000   0.0000000   0.0000000
 NQMom=    0.0000000   0.0000000   0.0000000   0.0000000   0.0000000   0.0000000   0.0000000   0.0000000   0.0000000   0.0000000
 NMagM=    2.7928460   2.7928460   2.7928460   2.7928460   2.7928460   2.7928460   2.7928460   2.7928460   2.7928460   2.7928460
 AtZNuc=   1.0000000   1.0000000   1.0000000   1.0000000   1.0000000   1.0000000   1.0000000   1.0000000   1.0000000   1.0000000

  Atom       151         152         153         154         155         156         157         158         159         160
 IAtWgt=           1           1           1           1           1           1           1           1           1           1
 AtmWgt=   1.0078250   1.0078250   1.0078250   1.0078250   1.0078250   1.0078250   1.0078250   1.0078250   1.0078250   1.0078250
 NucSpn=           1           1           1           1           1           1           1           1           1           1
 AtZEff=   0.0000000   0.0000000   0.0000000   0.0000000   0.0000000   0.0000000   0.0000000   0.0000000   0.0000000   0.0000000
 NQMom=    0.0000000   0.0000000   0.0000000   0.0000000   0.0000000   0.0000000   0.0000000   0.0000000   0.0000000   0.0000000
 NMagM=    2.7928460   2.7928460   2.7928460   2.7928460   2.7928460   2.7928460   2.7928460   2.7928460   2.7928460   2.7928460
 AtZNuc=   1.0000000   1.0000000   1.0000000   1.0000000   1.0000000   1.0000000   1.0000000   1.0000000   1.0000000   1.0000000

  Atom       161         162         163         164         165         166         167         168         169         170
 IAtWgt=           1           1           1           1           1           1           1           1           1           1
 AtmWgt=   1.0078250   1.0078250   1.0078250   1.0078250   1.0078250   1.0078250   1.0078250   1.0078250   1.0078250   1.0078250
 NucSpn=           1           1           1           1           1           1           1           1           1           1
 AtZEff=   0.0000000   0.0000000   0.0000000   0.0000000   0.0000000   0.0000000   0.0000000   0.0000000   0.0000000   0.0000000
 NQMom=    0.0000000   0.0000000   0.0000000   0.0000000   0.0000000   0.0000000   0.0000000   0.0000000   0.0000000   0.0000000
 NMagM=    2.7928460   2.7928460   2.7928460   2.7928460   2.7928460   2.7928460   2.7928460   2.7928460   2.7928460   2.7928460
 AtZNuc=   1.0000000   1.0000000   1.0000000   1.0000000   1.0000000   1.0000000   1.0000000   1.0000000   1.0000000   1.0000000

  Atom       171         172         173         174         175         176         177         178         179         180
 IAtWgt=           1           1           1           1           1           1           1           1           1           1
 AtmWgt=   1.0078250   1.0078250   1.0078250   1.0078250   1.0078250   1.0078250   1.0078250   1.0078250   1.0078250   1.0078250
 NucSpn=           1           1           1           1           1           1           1           1           1           1
 AtZEff=   0.0000000   0.0000000   0.0000000   0.0000000   0.0000000   0.0000000   0.0000000   0.0000000   0.0000000   0.0000000
 NQMom=    0.0000000   0.0000000   0.0000000   0.0000000   0.0000000   0.0000000   0.0000000   0.0000000   0.0000000   0.0000000
 NMagM=    2.7928460   2.7928460   2.7928460   2.7928460   2.7928460   2.7928460   2.7928460   2.7928460   2.7928460   2.7928460
 AtZNuc=   1.0000000   1.0000000   1.0000000   1.0000000   1.0000000   1.0000000   1.0000000   1.0000000   1.0000000   1.0000000

  Atom       181         182         183         184         185         186         187         188         189         190
 IAtWgt=           1           1           1           1           1           1           1          35           1           1
 AtmWgt=   1.0078250   1.0078250   1.0078250   1.0078250   1.0078250   1.0078250   1.0078250  34.9688527   1.0078250   1.0078250
 NucSpn=           1           1           1           1           1           1           1           3           1           1
 AtZEff=   0.0000000   0.0000000   0.0000000   0.0000000   0.0000000   0.0000000   0.0000000   0.0000000   0.0000000   0.0000000
 NQMom=    0.0000000   0.0000000   0.0000000   0.0000000   0.0000000   0.0000000   0.0000000  -8.1650000   0.0000000   0.0000000
 NMagM=    2.7928460   2.7928460   2.7928460   2.7928460   2.7928460   2.7928460   2.7928460   0.8218740   2.7928460   2.7928460
 AtZNuc=   1.0000000   1.0000000   1.0000000   1.0000000   1.0000000   1.0000000   1.0000000  17.0000000   1.0000000   1.0000000

  Atom       191         192         193         194         195         196         197         198         199         200
 IAtWgt=           1           1           1           1           1           1           1           1           1           1
 AtmWgt=   1.0078250   1.0078250   1.0078250   1.0078250   1.0078250   1.0078250   1.0078250   1.0078250   1.0078250   1.0078250
 NucSpn=           1           1           1           1           1           1           1           1           1           1
 AtZEff=   0.0000000   0.0000000   0.0000000   0.0000000   0.0000000   0.0000000   0.0000000   0.0000000   0.0000000   0.0000000
 NQMom=    0.0000000   0.0000000   0.0000000   0.0000000   0.0000000   0.0000000   0.0000000   0.0000000   0.0000000   0.0000000
 NMagM=    2.7928460   2.7928460   2.7928460   2.7928460   2.7928460   2.7928460   2.7928460   2.7928460   2.7928460   2.7928460
 AtZNuc=   1.0000000   1.0000000   1.0000000   1.0000000   1.0000000   1.0000000   1.0000000   1.0000000   1.0000000   1.0000000

  Atom       201         202         203         204         205         206         207         208         209         210
 IAtWgt=           1           1           1           1           1           1           1          12          16          14
 AtmWgt=   1.0078250   1.0078250   1.0078250   1.0078250   1.0078250   1.0078250   1.0078250  12.0000000  15.9949146  14.0030740
 NucSpn=           1           1           1           1           1           1           1           0           0           2
 AtZEff=   0.0000000   0.0000000   0.0000000   0.0000000   0.0000000   0.0000000   0.0000000   0.0000000   0.0000000   0.0000000
 NQMom=    0.0000000   0.0000000   0.0000000   0.0000000   0.0000000   0.0000000   0.0000000   0.0000000   0.0000000   2.0440000
 NMagM=    2.7928460   2.7928460   2.7928460   2.7928460   2.7928460   2.7928460   2.7928460   0.0000000   0.0000000   0.4037610
 AtZNuc=   1.0000000   1.0000000   1.0000000   1.0000000   1.0000000   1.0000000   1.0000000   6.0000000   8.0000000   7.0000000

  Atom       211         212         213         214         215
 IAtWgt=           1          12           1           1           1
 AtmWgt=   1.0078250  12.0000000   1.0078250   1.0078250   1.0078250
 NucSpn=           1           0           1           1           1
 AtZEff=   0.0000000   0.0000000   0.0000000   0.0000000   0.0000000
 NQMom=    0.0000000   0.0000000   0.0000000   0.0000000   0.0000000
 NMagM=    2.7928460   0.0000000   2.7928460   2.7928460   2.7928460
 AtZNuc=   1.0000000   6.0000000   1.0000000   1.0000000   1.0000000
 Leave Link  101 at Tue Aug 27 05:27:11 2024, MaxMem= 26843545600 cpu:         3.0
 (Enter /apps/z_install_tree/linux-rocky8-ivybridge/gcc-12.2.0/gaussian-09-D.01-wczn3gur5lpur3omlkzwa2l5ecyxp5ef/g09/l202.exe)
 Symmetry turned off by external request.
 Stoichiometry    C77H115Cl4CoN12O6(1+,2)
 Framework group  C1[X(C77H115Cl4CoN12O6)]
 Deg. of freedom   639
 Full point group                 C1      NOp   1
                          Input orientation:                          
 ---------------------------------------------------------------------
 Center     Atomic      Atomic             Coordinates (Angstroms)
 Number     Number       Type             X           Y           Z
 ---------------------------------------------------------------------
      1          6           0        7.457311   -4.409962    3.946361
      2          6           0        6.585395   -3.308825    4.582959
      3          6           0        5.764460   -2.479414    3.620770
      4          6           0        6.035277   -1.121439    3.410866
      5          6           0        4.667245   -3.047763    2.955435
      6          6           0        5.226292   -0.343085    2.579412
      7          6           0        3.853762   -2.277494    2.125738
      8          6           0        4.127528   -0.919221    1.939848
      9          6           0       -3.498135    7.188516    1.544797
     10          6           0       -2.179067    6.520797    1.123404
     11          8           0       -2.100313    6.417742   -0.326676
     12          6           0       -2.034210    5.107788    1.673499
     13          6           0       -6.711525    2.927759    5.387876
     14          6           0       -5.267339    2.594390    5.818640
     15          6           0       -4.451960    1.946163    4.723435
     16          6           0       -4.830998    0.684089    4.243288
     17          6           0       -3.315145    2.534953    4.158413
     18          6           0       -4.112676    0.031025    3.248894
     19          6           0       -2.573147    1.888603    3.169580
     20          6           0       -2.945237    0.609998    2.692223
     21          8           0       -2.259201   -0.012012    1.735026
     22          6           0       -4.045281   -5.537930    3.752337
     23          6           0       -2.889120   -4.535099    3.803124
     24          6           0       -3.067435   -3.356622    2.845846
     25          8           0       -4.074877   -3.270739    2.122809
     26          7           0       -2.052234   -2.478126    2.784383
     27          6           0       -7.761333    1.441583   -2.167683
     28          6           0       -7.311271    1.805875   -0.741113
     29          6           0       -6.575798    3.148805   -0.665901
     30          6           0       -5.690331    3.255286    0.585163
     31          7           0       -4.551739    2.337599    0.540415
     32          6           0       -3.480698    2.487133   -0.253218
     33          7           0       -3.381646    3.579108   -1.059650
     34          7           0       -2.531827    1.556194   -0.292282
     35          6           0       10.035955    5.629928    0.674270
     36          6           0        8.697685    5.121017    1.223121
     37          6           0        7.860071    4.374628    0.225608
     38          6           0        8.161660    4.101895   -1.084325
     39          6           0        6.566692    3.784197    0.473576
     40          7           0        7.132530    3.378212   -1.670532
     41          6           0        6.142160    3.166208   -0.736012
     42          6           0        5.728630    3.716003    1.600374
     43          6           0        4.924927    2.488515   -0.836125
     44          6           0        4.514096    3.042162    1.505259
     45          6           0        4.121938    2.426755    0.298104
     46         27           0        1.085061   -1.612021   -2.028215
     47          6           0       -1.509789   -2.717130   -2.361054
     48          6           0       -2.992770   -2.207811   -2.322664
     49          6           0       -2.882552   -0.872711   -3.160754
     50          6           0       -1.427208   -0.477838   -2.984371
     51          6           0       -0.881784    0.830744   -3.311948
     52          6           0        0.472143    1.068889   -3.261244
     53          6           0        1.255093    2.362237   -3.651662
     54          6           0        2.618121    1.728100   -4.059966
     55          6           0        2.653590    0.502576   -3.190608
     56          6           0        3.833412   -0.146703   -2.873592
     57          6           0        3.961218   -1.346917   -2.187864
     58          6           0        5.316644   -1.971110   -1.936247
     59          6           0        4.924052   -3.337046   -1.280279
     60          6           0        3.402828   -3.266767   -1.161949
     61          6           0        2.627495   -4.242794   -0.567548
     62          6           0        1.186968   -4.213720   -0.641293
     63          6           0        0.204225   -5.265880   -0.074900
     64          6           0       -1.103007   -4.890808   -0.849150
     65          6           0       -0.930303   -3.389128   -1.096505
     66          6           0       -1.178250   -3.563829   -3.608132
     67          7           0       -0.724462   -1.452176   -2.477397
     68          7           0        1.413411    0.104691   -2.858743
     69          7           0        2.931269   -2.095866   -1.749695
     70          7           0        0.537524   -3.219026   -1.191898
     71          6           0       -3.993206   -3.239044   -2.870491
     72          6           0       -3.404913   -1.848672   -0.873540
     73          6           0       -4.813986   -1.279556   -0.766732
     74          8           0       -5.328585   -0.608922   -1.680112
     75          7           0       -5.455535   -1.552186    0.379687
     76          6           0       -3.345959   -0.948058   -4.626048
     77          6           0       -1.874027    1.892193   -3.744928
     78          6           0        0.714328    3.251608   -4.783776
     79          6           0        1.565690    3.254555   -2.397652
     80          6           0        0.376924    3.972963   -1.791162
     81          8           0       -0.587878    3.329175   -1.352561
     82          7           0        0.391897    5.317098   -1.731091
     83          6           0        2.723848    1.290860   -5.535833
     84          6           0        6.164664   -1.114073   -0.974376
     85          6           0        6.050374   -2.077740   -3.285488
     86          6           0        5.404611   -4.580600   -2.051558
     87          6           0        3.301276   -5.359741    0.207579
     88          6           0        0.051692   -5.031831    1.445405
     89          6           0        0.526451   -6.745142   -0.361243
     90          6           0       -2.399931   -5.324409   -0.168382
     91         17           0        1.104296    2.113177    3.904906
     92          6           0        0.839013    1.130227    2.508124
     93          6           0        0.831962   -0.214582    2.550503
     94         17           0        0.547407    2.000013    1.040841
     95         17           0        0.649966   -1.186473    1.129377
     96          1           0        7.224711   -2.647926    5.178935
     97          1           0        5.898322   -3.786072    5.294042
     98          1           0        6.880140   -0.663843    3.919765
     99          1           0        4.433327   -4.098159    3.115576
    100          1           0        5.448361    0.708718    2.428687
    101          1           0        2.998078   -2.726882    1.636535
    102          1           0        3.494378   -0.316125    1.297323
    103          1           0        8.286345   -3.991293    3.368791
    104          1           0       -1.329848    7.126736    1.472185
    105          1           0       -1.205911    4.581873    1.191257
    106          1           0       -2.942908    4.520538    1.523987
    107          1           0       -1.841691    5.143564    2.749241
    108          1           0       -2.331599    7.281446   -0.695731
    109          1           0       -4.301211    6.826373    0.891488
    110          1           0       -4.765450    3.497629    6.183865
    111          1           0       -5.308202    1.907036    6.673608
    112          1           0       -2.995696    3.515709    4.507284
    113          1           0       -5.708495    0.197625    4.665877
    114          1           0       -1.694865    2.363511    2.747763
    115          1           0       -4.423222   -0.946841    2.901944
    116          1           0       -7.077487    2.195913    4.660347
    117          1           0       -2.743135   -4.138680    4.815728
    118          1           0       -1.941399   -5.019386    3.539068
    119          1           0       -2.152206   -1.571475    2.263448
    120          1           0       -1.323924   -2.527345    3.482078
    121          1           0       -4.498906   -5.532947    2.758568
    122          1           0       -8.180661    1.829948   -0.072337
    123          1           0       -6.645610    1.014678   -0.386523
    124          1           0       -7.292338    3.979021   -0.669976
    125          1           0       -5.946211    3.274060   -1.554891
    126          1           0       -5.330507    4.283234    0.735641
    127          1           0       -6.254768    3.000251    1.486014
    128          1           0       -4.543305    1.546398    1.174684
    129          1           0       -1.684922    1.826127   -0.777609
    130          1           0       -2.406931    0.856872    0.527390
    131          1           0       -3.940040    4.385319   -0.824665
    132          1           0       -2.421277    3.814507   -1.303660
    133          1           0       -6.876873    1.197412   -2.766145
    134          1           0        8.119546    5.968427    1.617714
    135          1           0        8.884919    4.469746    2.088496
    136          1           0        9.037857    4.365626   -1.658066
    137          1           0        6.028484    4.183597    2.533899
    138          1           0        3.859230    2.978342    2.369543
    139          1           0        4.620254    2.009823   -1.757673
    140          1           0        3.181143    1.888909    0.256510
    141          1           0        9.886913    6.348881   -0.138016
    142          1           0       -3.510688   -0.123548   -2.680059
    143          1           0        3.449162    2.405030   -3.835264
    144          1           0        4.745886    0.319734   -3.220950
    145          1           0        5.345467   -3.371799   -0.268703
    146          1           0       -1.031101   -5.402995   -1.815222
    147          1           0       -1.255158   -2.824746   -0.217586
    148          1           0       -1.403768   -3.012501   -4.520897
    149          1           0       -1.740640   -4.498661   -3.626218
    150          1           0       -0.111114   -3.806122   -3.617507
    151          1           0       -5.003835   -2.826975   -2.849430
    152          1           0       -3.782737   -3.529410   -3.900674
    153          1           0       -3.987543   -4.143375   -2.259572
    154          1           0       -2.730298   -1.109052   -0.432177
    155          1           0       -3.355481   -2.725497   -0.226920
    156          1           0       -6.395829   -1.201596    0.497003
    157          1           0       -3.238845    0.018831   -5.121306
    158          1           0       -2.793740   -1.684661   -5.214729
    159          1           0       -1.542709    2.885801   -3.467783
    160          1           0       -2.043396    1.879112   -4.826936
    161          1           0       -2.838531    1.749502   -3.256567
    162          1           0        1.520515    3.899574   -5.142756
    163          1           0       -0.097571    3.902142   -4.457337
    164          1           0        0.350029    2.663111   -5.627717
    165          1           0        2.339281    3.974052   -2.685150
    166          1           0        1.991789    2.636934   -1.601427
    167          1           0       -0.378443    5.783080   -1.245358
    168          1           0        2.729993    2.149297   -6.211205
    169          1           0        1.889557    0.638012   -5.811476
    170          1           0        5.676164   -0.994853   -0.007587
    171          1           0        6.350286   -0.116268   -1.382871
    172          1           0        7.132510   -1.600025   -0.811784
    173          1           0        5.459665   -2.597898   -4.044207
    174          1           0        6.285863   -1.082552   -3.670482
    175          1           0        7.001043   -2.605160   -3.170013
    176          1           0        6.491696   -4.563977   -2.162085
    177          1           0        5.148256   -5.501909   -1.530629
    178          1           0        4.292332   -5.061093    0.550553
    179          1           0        2.732147   -5.609102    1.103407
    180          1           0        3.405928   -6.282576   -0.371743
    181          1           0       -0.355971   -4.043360    1.669082
    182          1           0       -0.624518   -5.782795    1.862742
    183          1           0        1.007527   -5.127311    1.965694
    184          1           0       -0.375690   -7.342299   -0.200055
    185          1           0        1.299158   -7.149625    0.294083
    186          1           0       -3.252323   -5.224717   -0.842064
    187          1           0       -2.623269   -4.736044    0.721005
    188         17           0        1.041074   -1.108012    4.017020
    189          1           0        4.960434   -4.629118   -3.049380
    190          1           0        0.843831   -6.891407   -1.398839
    191          1           0       -2.352620   -6.377606    0.124883
    192          1           0       -4.405456   -1.211843   -4.652181
    193          1           0        3.651843    0.733427   -5.689815
    194          1           0       -8.280112    2.284730   -2.632813
    195          1           0       -4.831084   -5.290081    4.469834
    196          1           0       -3.689854   -6.548481    3.953556
    197          1           0       -7.386380    2.878881    6.242401
    198          1           0       -6.785047    3.917245    4.925776
    199          1           0       -3.461595    8.279752    1.477329
    200          1           0       -3.768879    6.897654    2.559898
    201          1           0        6.868389   -5.055592    3.286425
    202          1           0        7.850095   -5.019481    4.760239
    203          1           0       10.644549    4.804372    0.290049
    204          1           0       10.600211    6.120560    1.467195
    205          1           0        7.126761    3.046904   -2.620427
    206          1           0        1.191333    5.852496   -2.030534
    207          1           0       -5.020089   -2.137640    1.097474
    208          6           0       -8.745584    0.281133   -2.139080
    209          8           0       -9.954075    0.430911   -2.287654
    210          7           0       -8.159307   -0.914127   -1.849151
    211          1           0       -7.143272   -0.949775   -1.868311
    212          6           0       -8.930987   -2.131282   -1.784922
    213          1           0       -8.470817   -2.830215   -1.078937
    214          1           0       -9.941426   -1.890392   -1.448979
    215          1           0       -9.013765   -2.629694   -2.760694
 ---------------------------------------------------------------------
 Rotational constants (GHZ):      0.0204780      0.0132262      0.0118255
 Leave Link  202 at Tue Aug 27 05:27:11 2024, MaxMem= 26843545600 cpu:         0.1
 (Enter /apps/z_install_tree/linux-rocky8-ivybridge/gcc-12.2.0/gaussian-09-D.01-wczn3gur5lpur3omlkzwa2l5ecyxp5ef/g09/l301.exe)
 General basis read from cards:  (5D, 7F)
 Centers:       1      2      3      4      5      6      7      8      9     10
 Centers:      12     13     14     15     16     17     18     19     20     22
 Centers:      23     24     27     28     29     30     32     35     36     37
 Centers:      38     39     41     42     43     44     45     47     48     49
 Centers:      50     51     52     53     54     55     56     57     58     59
 Centers:      60     61     62     63     64     65     66     71     72     73
 Centers:      76     77     78     79     80     83     84     85     86     87
 Centers:      88     89     90     92     93    208    212     96     97     98
 Centers:      99    100    101    102    103    104    105    106    107    108
 Centers:     109    110    111    112    113    114    115    116    117    118
 Centers:     119    120    121    122    123    124    125    126    127    128
 Centers:     129    130    131    132    133    134    135    136    137    138
 Centers:     139    140    141    142    143    144    145    146    147    148
 Centers:     149    150    151    152    153    154    155    156    157    158
 Centers:     159    160    161    162    163    164    165    166    167    168
 Centers:     169    170    171    172    173    174    175    176    177    178
 Centers:     179    180    181    182    183    184    185    186    187    189
 Centers:     190    191    192    193    194    195    196    197    198    199
 Centers:     200    201    202    203    204    205    206    207    211    213
 Centers:     214    215     11     21     25     74     81    209     26     31
 Centers:      33     34     40     67     68     69     70     75     82    210
 Centers:      91     94     95    188
 6-31G(d,p)
 ****
 Centers:      46
 S 1 1.00
     Exponent=  7.1760000000D+00 Coefficients=  1.0000000000D+00
 S 1 1.00
     Exponent=  2.0090000000D+00 Coefficients=  1.0000000000D+00
 S 1 1.00
     Exponent=  8.0550000000D-01 Coefficients=  1.0000000000D+00
 S 1 1.00
     Exponent=  1.0700000000D-01 Coefficients=  1.0000000000D+00
 S 1 1.00
     Exponent=  3.7500000000D-02 Coefficients=  1.0000000000D+00
 P 1 1.00
     Exponent=  2.1390000000D+01 Coefficients=  1.0000000000D+00
 P 1 1.00
     Exponent=  2.6500000000D+00 Coefficients=  1.0000000000D+00
 P 1 1.00
     Exponent=  8.6190000000D-01 Coefficients=  1.0000000000D+00
 P 1 1.00
     Exponent=  8.0000000000D-02 Coefficients=  1.0000000000D+00
 P 1 1.00
     Exponent=  2.3000000000D-02 Coefficients=  1.0000000000D+00
 D 1 1.00
     Exponent=  3.9250000000D+01 Coefficients=  1.0000000000D+00
 D 1 1.00
     Exponent=  1.0780000000D+01 Coefficients=  1.0000000000D+00
 D 1 1.00
     Exponent=  3.4960000000D+00 Coefficients=  1.0000000000D+00
 D 1 1.00
     Exponent=  1.0660000000D+00 Coefficients=  1.0000000000D+00
 D 1 1.00
     Exponent=  2.6060000000D-01 Coefficients=  1.0000000000D+00
 F 1 1.00
     Exponent=  2.7800000000D+00 Coefficients=  1.0000000000D+00
 ****
 ======================================================================================================
                                       Pseudopotential Parameters
 ======================================================================================================
  Center     Atomic      Valence      Angular      Power
  Number     Number     Electrons     Momentum     of R      Exponent        Coefficient   SO-Coeffient
 ======================================================================================================
    1          6
                                   No pseudopotential on this center.
    2          6
                                   No pseudopotential on this center.
    3          6
                                   No pseudopotential on this center.
    4          6
                                   No pseudopotential on this center.
    5          6
                                   No pseudopotential on this center.
    6          6
                                   No pseudopotential on this center.
    7          6
                                   No pseudopotential on this center.
    8          6
                                   No pseudopotential on this center.
    9          6
                                   No pseudopotential on this center.
   10          6
                                   No pseudopotential on this center.
   11          8
                                   No pseudopotential on this center.
   12          6
                                   No pseudopotential on this center.
   13          6
                                   No pseudopotential on this center.
   14          6
                                   No pseudopotential on this center.
   15          6
                                   No pseudopotential on this center.
   16          6
                                   No pseudopotential on this center.
   17          6
                                   No pseudopotential on this center.
   18          6
                                   No pseudopotential on this center.
   19          6
                                   No pseudopotential on this center.
   20          6
                                   No pseudopotential on this center.
   21          8
                                   No pseudopotential on this center.
   22          6
                                   No pseudopotential on this center.
   23          6
                                   No pseudopotential on this center.
   24          6
                                   No pseudopotential on this center.
   25          8
                                   No pseudopotential on this center.
   26          7
                                   No pseudopotential on this center.
   27          6
                                   No pseudopotential on this center.
   28          6
                                   No pseudopotential on this center.
   29          6
                                   No pseudopotential on this center.
   30          6
                                   No pseudopotential on this center.
   31          7
                                   No pseudopotential on this center.
   32          6
                                   No pseudopotential on this center.
   33          7
                                   No pseudopotential on this center.
   34          7
                                   No pseudopotential on this center.
   35          6
                                   No pseudopotential on this center.
   36          6
                                   No pseudopotential on this center.
   37          6
                                   No pseudopotential on this center.
   38          6
                                   No pseudopotential on this center.
   39          6
                                   No pseudopotential on this center.
   40          7
                                   No pseudopotential on this center.
   41          6
                                   No pseudopotential on this center.
   42          6
                                   No pseudopotential on this center.
   43          6
                                   No pseudopotential on this center.
   44          6
                                   No pseudopotential on this center.
   45          6
                                   No pseudopotential on this center.
   46         27           17
                                      D and up 
                                                     1      434.1076104      -10.00000000    0.00000000
                                                     2       78.8402758      -66.72402760    0.00000000
                                                     2       19.6037749      -11.71922430    0.00000000
                                      S - D
                                                     0      151.2307582        3.00000000    0.00000000
                                                     1      169.6790026       20.15531100    0.00000000
                                                     2       64.9909423      413.37622440    0.00000000
                                                     2       12.5076287      133.87277050    0.00000000
                                      P - D
                                                     0       92.7319924        5.00000000    0.00000000
                                                     1      121.1910183        6.18923530    0.00000000
                                                     2       48.6265909      326.32159190    0.00000000
                                                     2       11.9966971       73.87889700    0.00000000
   47          6
                                   No pseudopotential on this center.
   48          6
                                   No pseudopotential on this center.
   49          6
                                   No pseudopotential on this center.
   50          6
                                   No pseudopotential on this center.
   51          6
                                   No pseudopotential on this center.
   52          6
                                   No pseudopotential on this center.
   53          6
                                   No pseudopotential on this center.
   54          6
                                   No pseudopotential on this center.
   55          6
                                   No pseudopotential on this center.
   56          6
                                   No pseudopotential on this center.
   57          6
                                   No pseudopotential on this center.
   58          6
                                   No pseudopotential on this center.
   59          6
                                   No pseudopotential on this center.
   60          6
                                   No pseudopotential on this center.
   61          6
                                   No pseudopotential on this center.
   62          6
                                   No pseudopotential on this center.
   63          6
                                   No pseudopotential on this center.
   64          6
                                   No pseudopotential on this center.
   65          6
                                   No pseudopotential on this center.
   66          6
                                   No pseudopotential on this center.
   67          7
                                   No pseudopotential on this center.
   68          7
                                   No pseudopotential on this center.
   69          7
                                   No pseudopotential on this center.
   70          7
                                   No pseudopotential on this center.
   71          6
                                   No pseudopotential on this center.
   72          6
                                   No pseudopotential on this center.
   73          6
                                   No pseudopotential on this center.
   74          8
                                   No pseudopotential on this center.
   75          7
                                   No pseudopotential on this center.
   76          6
                                   No pseudopotential on this center.
   77          6
                                   No pseudopotential on this center.
   78          6
                                   No pseudopotential on this center.
   79          6
                                   No pseudopotential on this center.
   80          6
                                   No pseudopotential on this center.
   81          8
                                   No pseudopotential on this center.
   82          7
                                   No pseudopotential on this center.
   83          6
                                   No pseudopotential on this center.
   84          6
                                   No pseudopotential on this center.
   85          6
                                   No pseudopotential on this center.
   86          6
                                   No pseudopotential on this center.
   87          6
                                   No pseudopotential on this center.
   88          6
                                   No pseudopotential on this center.
   89          6
                                   No pseudopotential on this center.
   90          6
                                   No pseudopotential on this center.
   91         17
                                   No pseudopotential on this center.
   92          6
                                   No pseudopotential on this center.
   93          6
                                   No pseudopotential on this center.
   94         17
                                   No pseudopotential on this center.
   95         17
                                   No pseudopotential on this center.
   96          1
                                   No pseudopotential on this center.
   97          1
                                   No pseudopotential on this center.
   98          1
                                   No pseudopotential on this center.
   99          1
                                   No pseudopotential on this center.
  100          1
                                   No pseudopotential on this center.
  101          1
                                   No pseudopotential on this center.
  102          1
                                   No pseudopotential on this center.
  103          1
                                   No pseudopotential on this center.
  104          1
                                   No pseudopotential on this center.
  105          1
                                   No pseudopotential on this center.
  106          1
                                   No pseudopotential on this center.
  107          1
                                   No pseudopotential on this center.
  108          1
                                   No pseudopotential on this center.
  109          1
                                   No pseudopotential on this center.
  110          1
                                   No pseudopotential on this center.
  111          1
                                   No pseudopotential on this center.
  112          1
                                   No pseudopotential on this center.
  113          1
                                   No pseudopotential on this center.
  114          1
                                   No pseudopotential on this center.
  115          1
                                   No pseudopotential on this center.
  116          1
                                   No pseudopotential on this center.
  117          1
                                   No pseudopotential on this center.
  118          1
                                   No pseudopotential on this center.
  119          1
                                   No pseudopotential on this center.
  120          1
                                   No pseudopotential on this center.
  121          1
                                   No pseudopotential on this center.
  122          1
                                   No pseudopotential on this center.
  123          1
                                   No pseudopotential on this center.
  124          1
                                   No pseudopotential on this center.
  125          1
                                   No pseudopotential on this center.
  126          1
                                   No pseudopotential on this center.
  127          1
                                   No pseudopotential on this center.
  128          1
                                   No pseudopotential on this center.
  129          1
                                   No pseudopotential on this center.
  130          1
                                   No pseudopotential on this center.
  131          1
                                   No pseudopotential on this center.
  132          1
                                   No pseudopotential on this center.
  133          1
                                   No pseudopotential on this center.
  134          1
                                   No pseudopotential on this center.
  135          1
                                   No pseudopotential on this center.
  136          1
                                   No pseudopotential on this center.
  137          1
                                   No pseudopotential on this center.
  138          1
                                   No pseudopotential on this center.
  139          1
                                   No pseudopotential on this center.
  140          1
                                   No pseudopotential on this center.
  141          1
                                   No pseudopotential on this center.
  142          1
                                   No pseudopotential on this center.
  143          1
                                   No pseudopotential on this center.
  144          1
                                   No pseudopotential on this center.
  145          1
                                   No pseudopotential on this center.
  146          1
                                   No pseudopotential on this center.
  147          1
                                   No pseudopotential on this center.
  148          1
                                   No pseudopotential on this center.
  149          1
                                   No pseudopotential on this center.
  150          1
                                   No pseudopotential on this center.
  151          1
                                   No pseudopotential on this center.
  152          1
                                   No pseudopotential on this center.
  153          1
                                   No pseudopotential on this center.
  154          1
                                   No pseudopotential on this center.
  155          1
                                   No pseudopotential on this center.
  156          1
                                   No pseudopotential on this center.
  157          1
                                   No pseudopotential on this center.
  158          1
                                   No pseudopotential on this center.
  159          1
                                   No pseudopotential on this center.
  160          1
                                   No pseudopotential on this center.
  161          1
                                   No pseudopotential on this center.
  162          1
                                   No pseudopotential on this center.
  163          1
                                   No pseudopotential on this center.
  164          1
                                   No pseudopotential on this center.
  165          1
                                   No pseudopotential on this center.
  166          1
                                   No pseudopotential on this center.
  167          1
                                   No pseudopotential on this center.
  168          1
                                   No pseudopotential on this center.
  169          1
                                   No pseudopotential on this center.
  170          1
                                   No pseudopotential on this center.
  171          1
                                   No pseudopotential on this center.
  172          1
                                   No pseudopotential on this center.
  173          1
                                   No pseudopotential on this center.
  174          1
                                   No pseudopotential on this center.
  175          1
                                   No pseudopotential on this center.
  176          1
                                   No pseudopotential on this center.
  177          1
                                   No pseudopotential on this center.
  178          1
                                   No pseudopotential on this center.
  179          1
                                   No pseudopotential on this center.
  180          1
                                   No pseudopotential on this center.
  181          1
                                   No pseudopotential on this center.
  182          1
                                   No pseudopotential on this center.
  183          1
                                   No pseudopotential on this center.
  184          1
                                   No pseudopotential on this center.
  185          1
                                   No pseudopotential on this center.
  186          1
                                   No pseudopotential on this center.
  187          1
                                   No pseudopotential on this center.
  188         17
                                   No pseudopotential on this center.
  189          1
                                   No pseudopotential on this center.
  190          1
                                   No pseudopotential on this center.
  191          1
                                   No pseudopotential on this center.
  192          1
                                   No pseudopotential on this center.
  193          1
                                   No pseudopotential on this center.
  194          1
                                   No pseudopotential on this center.
  195          1
                                   No pseudopotential on this center.
  196          1
                                   No pseudopotential on this center.
  197          1
                                   No pseudopotential on this center.
  198          1
                                   No pseudopotential on this center.
  199          1
                                   No pseudopotential on this center.
  200          1
                                   No pseudopotential on this center.
  201          1
                                   No pseudopotential on this center.
  202          1
                                   No pseudopotential on this center.
  203          1
                                   No pseudopotential on this center.
  204          1
                                   No pseudopotential on this center.
  205          1
                                   No pseudopotential on this center.
  206          1
                                   No pseudopotential on this center.
  207          1
                                   No pseudopotential on this center.
  208          6
                                   No pseudopotential on this center.
  209          8
                                   No pseudopotential on this center.
  210          7
                                   No pseudopotential on this center.
  211          1
                                   No pseudopotential on this center.
  212          6
                                   No pseudopotential on this center.
  213          1
                                   No pseudopotential on this center.
  214          1
                                   No pseudopotential on this center.
  215          1
                                   No pseudopotential on this center.
 ======================================================================================================
 Ernie: Thresh=  0.10000D-02 Tol=  0.10000D-05 Strict=F.
  2029 basis functions,  3733 primitive gaussians,  2136 cartesian basis functions
   397 alpha electrons      396 beta electrons
       nuclear repulsion energy     26168.2504541069 Hartrees.
 IExCor=  402 DFT=T Ex+Corr=B3LYP ExCW=0 ScaHFX=  0.200000
 ScaDFX=  0.800000  0.720000  1.000000  0.810000 ScalE2=  1.000000  1.000000
 IRadAn=      5 IRanWt=     -1 IRanGd=            0 ICorTp=0 IEmpDi=131
 NAtoms=  215 NActive=  215 NUniq=  215 SFac= 1.00D+00 NAtFMM=   60 NAOKFM=T Big=T
 Integral buffers will be    131072 words long.
 Raffenetti 2 integral format.
 Two-electron integral symmetry is turned off.
 R6Disp:  Grimme-D3 Dispersion energy=       -0.3898791997 Hartrees.
 Nuclear repulsion after empirical dispersion term =    26167.8605749072 Hartrees.
 Using the following non-standard input for PCM:
 eps=4.0
 --- end of non-standard input.
 ------------------------------------------------------------------------------
 Polarizable Continuum Model (PCM)
 =================================
 Model                : PCM (using non-symmetric T matrix).
 Atomic radii         : SMD-Coulomb.
 Polarization charges : Total charges.
 Charge compensation  : None.
 Solution method      : On-the-fly selection.
 Cavity type          : VdW (van der Waals Surface) (Alpha=1.000).
 Cavity algorithm     : GePol (No added spheres)
                        Default sphere list used, NSphG=  215.
                        Lebedev-Laikov grids with approx.  5.0 points / Ang**2.
                        Smoothing algorithm: Karplus/York (Gamma=1.0000).
[...]
     6  C   -0.315751   0.000074
     7  C    0.076474  -0.001128
     8  C   -0.417646  -0.000555
     9  C   -0.467411   0.000001
    10  C    0.115068   0.000004
    11  O   -0.459297   0.000001
    12  C   -0.364167  -0.000012
    13  C   -0.357970  -0.000001
    14  C   -0.138287  -0.000001
    15  C    0.482163   0.000000
    16  C   -0.284692   0.000008
    17  C   -0.288358  -0.000002
    18  C   -0.272030  -0.000005
    19  C   -0.341173   0.000006
    20  C    0.068993   0.000193
    21  O   -0.547423   0.000052
    22  C   -0.397274  -0.000006
    23  C   -0.597425   0.000131
    24  C    0.494043  -0.000240
    25  O   -0.373524   0.000009
    26  N   -0.328721  -0.000034
    27  C   -0.208573  -0.000018
    28  C    0.136440   0.000014
    29  C   -0.187427   0.000022
    30  C   -0.195272  -0.000017
    31  N    0.063347   0.000042
    32  C   -0.166194  -0.000541
    33  N   -0.117137   0.000054
    34  N   -1.018422  -0.000158
    35  C   -0.494574   0.000000
    36  C   -0.101771  -0.000005
    37  C    0.398366   0.000006
    38  C   -0.242139   0.000016
    39  C    0.461266  -0.000019
    40  N   -0.092852   0.000011
    41  C   -0.106423   0.000285
    42  C   -0.381787   0.000029
    43  C   -0.269010  -0.000599
    44  C   -0.461949  -0.000036
    45  C   -0.091487   0.000057
    46  Co  -1.140097   0.284852
    47  C   -0.391178  -0.007892
    48  C    0.171206   0.001501
    49  C    0.275084   0.027314
    50  C   -0.287600  -0.021924
    51  C   -0.154430   0.006128
    52  C    0.178145  -0.012916
    53  C   -0.049751   0.009337
    54  C   -0.048633   0.012444
    55  C    0.332990  -0.007184
    56  C   -0.307704   0.000481
    57  C    0.333851  -0.009867
    58  C    0.121873   0.009407
    59  C    0.009552   0.010293
    60  C    0.328466  -0.016857
    61  C    0.007409   0.004867
    62  C    0.166209  -0.020057
    63  C    0.214381   0.018369
    64  C   -0.320634   0.001364
    65  C   -0.263391  -0.010339
    66  C   -0.091651   0.001623
    67  N    1.144117   0.232479
    68  N    0.173692   0.146871
    69  N   -0.279469   0.129458
    70  N    0.305783   0.209668
    71  C   -0.359070   0.001071
    72  C   -0.598901  -0.003536
    73  C    0.010091  -0.001136
    74  O   -0.269179   0.000352
    75  N   -0.413935   0.000064
    76  C   -0.317067  -0.000158
    77  C   -0.567443  -0.001823
    78  C   -0.328511   0.001034
    79  C   -0.329925  -0.002000
    80  C    0.469076  -0.000066
    81  O   -0.637984  -0.000122
    82  N   -0.323363  -0.000016
    83  C   -0.362182  -0.000456
    84  C   -0.653888  -0.002239
    85  C   -0.359541   0.000581
    86  C   -0.445564  -0.000744
    87  C   -0.363262  -0.000556
    88  C   -0.935831  -0.002044
    89  C   -0.256572   0.001567
    90  C   -0.464582   0.000874
    91  Cl  -1.147372   0.000022
    92  C    2.313151   0.000268
    93  C    1.922717   0.000084
    94  Cl  -0.285317  -0.000065
    95  Cl  -0.061890   0.003518
    96  H    0.086585   0.000000
    97  H    0.098722   0.000000
    98  H    0.094509   0.000002
    99  H    0.095200   0.000004
   100  H    0.164131   0.000000
   101  H    0.163443  -0.000057
   102  H    0.160082   0.000047
   103  H    0.094224   0.000000
   104  H    0.099599   0.000000
   105  H    0.147099   0.000000
   106  H    0.112246   0.000000
   107  H    0.141879   0.000000
   108  H    0.260785   0.000000
   109  H    0.114791   0.000000
   110  H    0.078406   0.000000
   111  H    0.094265   0.000000
   112  H    0.079521   0.000000
   113  H    0.090731   0.000000
   114  H    0.091527   0.000001
   115  H    0.140131   0.000000
   116  H    0.084793   0.000000
   117  H    0.110626   0.000001
   118  H    0.110080   0.000009
   119  H    0.374806   0.000019
   120  H    0.174449   0.000006
   121  H    0.112627   0.000002
   122  H    0.109084   0.000000
   123  H    0.095485   0.000004
   124  H    0.105992   0.000000
   125  H    0.103432   0.000000
   126  H    0.112952   0.000000
   127  H    0.154034   0.000000
   128  H    0.292119   0.000001
   129  H    0.379194   0.000045
   130  H    0.514264  -0.000031
   131  H    0.185311   0.000000
   132  H    0.259823   0.000001
   133  H    0.116221   0.000003
   134  H    0.106965   0.000000
   135  H    0.106783   0.000000
   136  H    0.109161   0.000000
   137  H    0.103851  -0.000001
   138  H    0.144681   0.000000
   139  H    0.126486  -0.000032
   140  H    0.121399   0.000035
   141  H    0.104296   0.000000
   142  H    0.096393  -0.000862
   143  H    0.093395  -0.000521
   144  H    0.091306  -0.000514
   145  H    0.127218  -0.000624
   146  H    0.094102  -0.000006
   147  H    0.128615   0.001232
   148  H    0.134491  -0.000024
   149  H    0.139403   0.000114
   150  H    0.143506   0.000068
   151  H    0.166424   0.000780
   152  H    0.128759  -0.000009
   153  H    0.122022  -0.000062
   154  H    0.206711   0.000174
   155  H    0.167365   0.000090
   156  H    0.222400   0.000021
   157  H    0.117132  -0.000034
   158  H    0.108552   0.000147
   159  H    0.110259   0.000194
   160  H    0.141912   0.000327
   161  H    0.174576   0.000100
   162  H    0.130958   0.000777
   163  H    0.131362  -0.000044
   164  H    0.125430   0.000090
   165  H    0.095961   0.000203
   166  H    0.143137   0.000107
   167  H    0.295153  -0.000001
   168  H    0.125838   0.000376
   169  H    0.135070   0.000075
   170  H    0.230999   0.000114
   171  H    0.121484   0.000032
   172  H    0.120949   0.000456
   173  H    0.108952   0.000062
   174  H    0.110330   0.000012
   175  H    0.124526   0.000596
   176  H    0.116572   0.000529
   177  H    0.119985   0.000031
   178  H    0.139930   0.000042
   179  H    0.120810   0.000109
   180  H    0.146932   0.000249
   181  H    0.135050   0.000002
   182  H    0.132288   0.000779
   183  H    0.134388   0.000054
   184  H    0.123140   0.001174
   185  H    0.115989  -0.000075
   186  H    0.126661  -0.000038
   187  H    0.157413   0.000108
   188  Cl  -1.302145  -0.000024
   189  H    0.105366   0.000096
   190  H    0.109853   0.000205
   191  H    0.124538   0.000852
   192  H    0.146404   0.001163
   193  H    0.126940   0.000026
   194  H    0.117926   0.000000
   195  H    0.109423   0.000000
   196  H    0.106263   0.000004
   197  H    0.102782   0.000000
   198  H    0.083055   0.000000
   199  H    0.115632   0.000000
   200  H    0.121232   0.000000
   201  H    0.087091   0.000000
   202  H    0.109681   0.000000
   203  H    0.100965   0.000000
   204  H    0.110379   0.000000
   205  H    0.165471   0.000002
   206  H    0.186893  -0.000014
   207  H    0.397425   0.000007
   208  C    0.103142  -0.000004
   209  O   -0.491519   0.000001
   210  N   -0.191444   0.000007
   211  H    0.226165   0.000000
   212  C   -0.188948   0.000015
   213  H    0.100418   0.000000
   214  H    0.134386   0.000001
   215  H    0.103355   0.000001
 Sum of Mulliken charges =   1.00000   1.00000
 Mulliken charges and spin densities with hydrogens summed into heavy atoms:
               1          2
     1  C   -0.110099   0.000002
     2  C    0.173431  -0.000002
     3  C    0.288233  -0.000038
     4  C   -0.232196   0.000032
     5  C   -0.356594  -0.000331
     6  C   -0.151620   0.000075
     7  C    0.239916  -0.001185
     8  C   -0.257563  -0.000508
     9  C   -0.115755   0.000001
    10  C    0.214667   0.000004
    11  O   -0.198512   0.000001
    12  C    0.037056  -0.000012
    13  C   -0.087341   0.000000
    14  C    0.034384  -0.000001
    15  C    0.482163   0.000000
    16  C   -0.193960   0.000008
    17  C   -0.208837  -0.000002
    18  C   -0.131899  -0.000005
    19  C   -0.249646   0.000006
    20  C    0.068993   0.000193
    21  O   -0.547423   0.000052
    22  C   -0.068961   0.000000
    23  C   -0.376719   0.000140
    24  C    0.494043  -0.000240
    25  O   -0.373524   0.000009
    26  N    0.220534  -0.000009
    27  C    0.025574  -0.000015
    28  C    0.341009   0.000018
    29  C    0.021997   0.000022
    30  C    0.071714  -0.000017
    31  N    0.355466   0.000043
    32  C   -0.166194  -0.000541
    33  N    0.327997   0.000055
    34  N   -0.124964  -0.000143
    35  C   -0.178934   0.000000
    36  C    0.111976  -0.000005
    37  C    0.398366   0.000006
    38  C   -0.132979   0.000016
    39  C    0.461266  -0.000019
    40  N    0.072620   0.000013
    41  C   -0.106423   0.000285
    42  C   -0.277935   0.000028
    43  C   -0.142524  -0.000631
    44  C   -0.317268  -0.000036
    45  C    0.029912   0.000092
    46  Co  -1.140097   0.284852
    47  C   -0.391178  -0.007892
    48  C    0.171206   0.001501
    49  C    0.371477   0.026452
    50  C   -0.287600  -0.021924
    51  C   -0.154430   0.006128
    52  C    0.178145  -0.012916
    53  C   -0.049751   0.009337
    54  C    0.044763   0.011923
    55  C    0.332990  -0.007184
    56  C   -0.216398  -0.000033
    57  C    0.333851  -0.009867
    58  C    0.121873   0.009407
    59  C    0.136770   0.009669
    60  C    0.328466  -0.016857
    61  C    0.007409   0.004867
    62  C    0.166209  -0.020057
    63  C    0.214381   0.018369
    64  C   -0.226531   0.001359
    65  C   -0.134776  -0.009107
    66  C    0.325749   0.001781
    67  N    1.144117   0.232479
    68  N    0.173692   0.146871
    69  N   -0.279469   0.129458
    70  N    0.305783   0.209668
    71  C    0.058136   0.001780
    72  C   -0.224826  -0.003272
    73  C    0.010091  -0.001136
    74  O   -0.269179   0.000352
    75  N    0.205890   0.000092
    76  C    0.055021   0.001118
    77  C   -0.140696  -0.001201
    78  C    0.059239   0.001857
    79  C   -0.090827  -0.001689
    80  C    0.469076  -0.000066
    81  O   -0.637984  -0.000122
    82  N    0.158683  -0.000032
    83  C    0.025667   0.000022
    84  C   -0.180457  -0.001637
    85  C   -0.015732   0.001251
    86  C   -0.103641  -0.000088
    87  C    0.044410  -0.000156
    88  C   -0.534104  -0.001209
    89  C    0.092410   0.002871
    90  C   -0.055971   0.001796
    91  Cl  -1.147372   0.000022
    92  C    2.313151   0.000268
    93  C    1.922717   0.000084
    94  Cl  -0.285317  -0.000065
    95  Cl  -0.061890   0.003518
   188  Cl  -1.302145  -0.000024
   208  C    0.103142  -0.000004
   209  O   -0.491519   0.000001
   210  N    0.034722   0.000008
   212  C    0.149210   0.000016
 Electronic spatial extent (au):  <R**2>=         105674.9027
 Charge=              1.0000 electrons
 Dipole moment (field-independent basis, Debye):
    X=             13.3825    Y=              3.7640    Z=             -6.4145  Tot=             15.3102
 Quadrupole moment (field-independent basis, Debye-Ang):
   XX=           -619.7451   YY=           -485.2495   ZZ=           -585.6723
   XY=             -9.8802   XZ=            -43.7742   YZ=            -15.5472
 Traceless Quadrupole moment (field-independent basis, Debye-Ang):
   XX=            -56.1895   YY=             78.3061   ZZ=            -22.1167
   XY=             -9.8802   XZ=            -43.7742   YZ=            -15.5472
 Octapole moment (field-independent basis, Debye-Ang**2):
  XXX=           1405.8458  YYY=            329.7980  ZZZ=           -124.6839  XYY=            -68.0982
  XXY=             75.3095  XXZ=            196.1894  XZZ=            152.7972  YZZ=             17.7549
  YYZ=            -38.1206  XYZ=           -104.0187
 Hexadecapole moment (field-independent basis, Debye-Ang**3):
 XXXX=         -82847.2786 YYYY=         -34488.2660 ZZZZ=         -26422.5424 XXXY=           1557.6979
 XXXZ=          -3575.3872 YYYX=          -1110.8828 YYYZ=           -268.9692 ZZZX=           -326.8022
 ZZZY=           -389.2123 XXYY=         -17292.2226 XXZZ=         -16688.5116 YYZZ=         -10446.8831
 XXYZ=            120.4181 YYXZ=            -30.1768 ZZXY=            223.0152
 N-N= 2.694726129662D+04 E-N=-6.953479921508D+04  KE= 6.424004329997D+03
 Leave Link  601 at Wed Aug 28 22:42:07 2024, MaxMem= 26843545600 cpu:        47.5
 (Enter /apps/z_install_tree/linux-rocky8-ivybridge/gcc-12.2.0/gaussian-09-D.01-wczn3gur5lpur3omlkzwa2l5ecyxp5ef/g09/l9999.exe)
 1\1\GINC-K066\SP\UB3LYP\Gen\C77H115Cl4Co1N12O6(1+,2)\Z5112331\28-Aug-2
 024\0\\#p b3lyp/gen nosymm guess=read em=gd3 int=ultrafine scf=xqc scf
 cyc=96\\Reactp_out_freq12_l\\1,2\C,0,7.457311,-4.409962,3.946361\C,0,6
 .585395,-3.308825,4.582959\C,0,5.76446,-2.479414,3.62077\C,0,6.035277,
 -1.121439,3.410866\C,0,4.667245,-3.047763,2.955435\C,0,5.226292,-0.343
 085,2.579412\C,0,3.853762,-2.277494,2.125738\C,0,4.127528,-0.919221,1.
 939848\C,0,-3.498135,7.188516,1.544797\C,0,-2.179067,6.520797,1.123404
 \O,0,-2.100313,6.417742,-0.326676\C,0,-2.03421,5.107788,1.673499\C,0,-
 6.711525,2.927759,5.387876\C,0,-5.267339,2.59439,5.81864\C,0,-4.45196,
 1.946163,4.723435\C,0,-4.830998,0.684089,4.243288\C,0,-3.315145,2.5349
 53,4.158413\C,0,-4.112676,0.031025,3.248894\C,0,-2.573147,1.888603,3.1
 6958\C,0,-2.945237,0.609998,2.692223\O,0,-2.259201,-0.012012,1.735026\
 C,0,-4.045281,-5.53793,3.752337\C,0,-2.88912,-4.535099,3.803124\C,0,-3
 .067435,-3.356622,2.845846\O,0,-4.074877,-3.270739,2.122809\N,0,-2.052
 234,-2.478126,2.784383\C,0,-7.761333,1.441583,-2.167683\C,0,-7.311271,
 1.805875,-0.741113\C,0,-6.575798,3.148805,-0.665901\C,0,-5.690331,3.25
 5286,0.585163\N,0,-4.551739,2.337599,0.540415\C,0,-3.480698,2.487133,-
 0.253218\N,0,-3.381646,3.579108,-1.05965\N,0,-2.531827,1.556194,-0.292
 282\C,0,10.035955,5.629928,0.67427\C,0,8.697685,5.121017,1.223121\C,0,
 7.860071,4.374628,0.225608\C,0,8.16166,4.101895,-1.084325\C,0,6.566692
 ,3.784197,0.473576\N,0,7.13253,3.378212,-1.670532\C,0,6.14216,3.166208
 ,-0.736012\C,0,5.72863,3.716003,1.600374\C,0,4.924927,2.488515,-0.8361
 25\C,0,4.514096,3.042162,1.505259\C,0,4.121938,2.426755,0.298104\Co,0,
 1.085061,-1.612021,-2.028215\C,0,-1.509789,-2.71713,-2.361054\C,0,-2.9
 9277,-2.207811,-2.322664\C,0,-2.882552,-0.872711,-3.160754\C,0,-1.4272
 08,-0.477838,-2.984371\C,0,-0.881784,0.830744,-3.311948\C,0,0.472143,1
 .068889,-3.261244\C,0,1.255093,2.362237,-3.651662\C,0,2.618121,1.7281,
 -4.059966\C,0,2.65359,0.502576,-3.190608\C,0,3.833412,-0.146703,-2.873
 592\C,0,3.961218,-1.346917,-2.187864\C,0,5.316644,-1.97111,-1.936247\C
 ,0,4.924052,-3.337046,-1.280279\C,0,3.402828,-3.266767,-1.161949\C,0,2
 .627495,-4.242794,-0.567548\C,0,1.186968,-4.21372,-0.641293\C,0,0.2042
 25,-5.26588,-0.0749\C,0,-1.103007,-4.890808,-0.84915\C,0,-0.930303,-3.
 389128,-1.096505\C,0,-1.17825,-3.563829,-3.608132\N,0,-0.724462,-1.452
 176,-2.477397\N,0,1.413411,0.104691,-2.858743\N,0,2.931269,-2.095866,-
 1.749695\N,0,0.537524,-3.219026,-1.191898\C,0,-3.993206,-3.239044,-2.8
 70491\C,0,-3.404913,-1.848672,-0.87354\C,0,-4.813986,-1.279556,-0.7667
 32\O,0,-5.328585,-0.608922,-1.680112\N,0,-5.455535,-1.552186,0.379687\
 C,0,-3.345959,-0.948058,-4.626048\C,0,-1.874027,1.892193,-3.744928\C,0
 ,0.714328,3.251608,-4.783776\C,0,1.56569,3.254555,-2.397652\C,0,0.3769
 24,3.972963,-1.791162\O,0,-0.587878,3.329175,-1.352561\N,0,0.391897,5.
 317098,-1.731091\C,0,2.723848,1.29086,-5.535833\C,0,6.164664,-1.114073
 ,-0.974376\C,0,6.050374,-2.07774,-3.285488\C,0,5.404611,-4.5806,-2.051
 558\C,0,3.301276,-5.359741,0.207579\C,0,0.051692,-5.031831,1.445405\C,
 0,0.526451,-6.745142,-0.361243\C,0,-2.399931,-5.324409,-0.168382\Cl,0,
 1.104296,2.113177,3.904906\C,0,0.839013,1.130227,2.508124\C,0,0.831962
 ,-0.214582,2.550503\Cl,0,0.547407,2.000013,1.040841\Cl,0,0.649966,-1.1
 86473,1.129377\H,0,7.224711,-2.647926,5.178935\H,0,5.898322,-3.786072,
 5.294042\H,0,6.88014,-0.663843,3.919765\H,0,4.433327,-4.098159,3.11557
 6\H,0,5.448361,0.708718,2.428687\H,0,2.998078,-2.726882,1.636535\H,0,3
 .494378,-0.316125,1.297323\H,0,8.286345,-3.991293,3.368791\H,0,-1.3298
 48,7.126736,1.472185\H,0,-1.205911,4.581873,1.191257\H,0,-2.942908,4.5
 20538,1.523987\H,0,-1.841691,5.143564,2.749241\H,0,-2.331599,7.281446,
 -0.695731\H,0,-4.301211,6.826373,0.891488\H,0,-4.76545,3.497629,6.1838
 65\H,0,-5.308202,1.907036,6.673608\H,0,-2.995696,3.515709,4.507284\H,0
 ,-5.708495,0.197625,4.665877\H,0,-1.694865,2.363511,2.747763\H,0,-4.42
 3222,-0.946841,2.901944\H,0,-7.077487,2.195913,4.660347\H,0,-2.743135,
 -4.13868,4.815728\H,0,-1.941399,-5.019386,3.539068\H,0,-2.152206,-1.57
 1475,2.263448\H,0,-1.323924,-2.527345,3.482078\H,0,-4.498906,-5.532947
 ,2.758568\H,0,-8.180661,1.829948,-0.072337\H,0,-6.64561,1.014678,-0.38
 6523\H,0,-7.292338,3.979021,-0.669976\H,0,-5.946211,3.27406,-1.554891\
 H,0,-5.330507,4.283234,0.735641\H,0,-6.254768,3.000251,1.486014\H,0,-4
 .543305,1.546398,1.174684\H,0,-1.684922,1.826127,-0.777609\H,0,-2.4069
 31,0.856872,0.52739\H,0,-3.94004,4.385319,-0.824665\H,0,-2.421277,3.81
 4507,-1.30366\H,0,-6.876873,1.197412,-2.766145\H,0,8.119546,5.968427,1
 .617714\H,0,8.884919,4.469746,2.088496\H,0,9.037857,4.365626,-1.658066
 \H,0,6.028484,4.183597,2.533899\H,0,3.85923,2.978342,2.369543\H,0,4.62
 0254,2.009823,-1.757673\H,0,3.181143,1.888909,0.25651\H,0,9.886913,6.3
 48881,-0.138016\H,0,-3.510688,-0.123548,-2.680059\H,0,3.449162,2.40503
 ,-3.835264\H,0,4.745886,0.319734,-3.22095\H,0,5.345467,-3.371799,-0.26
 8703\H,0,-1.031101,-5.402995,-1.815222\H,0,-1.255158,-2.824746,-0.2175
 86\H,0,-1.403768,-3.012501,-4.520897\H,0,-1.74064,-4.498661,-3.626218\
 H,0,-0.111114,-3.806122,-3.617507\H,0,-5.003835,-2.826975,-2.84943\H,0
 ,-3.782737,-3.52941,-3.900674\H,0,-3.987543,-4.143375,-2.259572\H,0,-2
 .730298,-1.109052,-0.432177\H,0,-3.355481,-2.725497,-0.22692\H,0,-6.39
 5829,-1.201596,0.497003\H,0,-3.238845,0.018831,-5.121306\H,0,-2.79374,
 -1.684661,-5.214729\H,0,-1.542709,2.885801,-3.467783\H,0,-2.043396,1.8
 79112,-4.826936\H,0,-2.838531,1.749502,-3.256567\H,0,1.520515,3.899574
 ,-5.142756\H,0,-0.097571,3.902142,-4.457337\H,0,0.350029,2.663111,-5.6
 27717\H,0,2.339281,3.974052,-2.68515\H,0,1.991789,2.636934,-1.601427\H
 ,0,-0.378443,5.78308,-1.245358\H,0,2.729993,2.149297,-6.211205\H,0,1.8
 89557,0.638012,-5.811476\H,0,5.676164,-0.994853,-0.007587\H,0,6.350286
 ,-0.116268,-1.382871\H,0,7.13251,-1.600025,-0.811784\H,0,5.459665,-2.5
 97898,-4.044207\H,0,6.285863,-1.082552,-3.670482\H,0,7.001043,-2.60516
 ,-3.170013\H,0,6.491696,-4.563977,-2.162085\H,0,5.148256,-5.501909,-1.
 530629\H,0,4.292332,-5.061093,0.550553\H,0,2.732147,-5.609102,1.103407
 \H,0,3.405928,-6.282576,-0.371743\H,0,-0.355971,-4.04336,1.669082\H,0,
 -0.624518,-5.782795,1.862742\H,0,1.007527,-5.127311,1.965694\H,0,-0.37
 569,-7.342299,-0.200055\H,0,1.299158,-7.149625,0.294083\H,0,-3.252323,
 -5.224717,-0.842064\H,0,-2.623269,-4.736044,0.721005\Cl,0,1.041074,-1.
 108012,4.01702\H,0,4.960434,-4.629118,-3.04938\H,0,0.843831,-6.891407,
 -1.398839\H,0,-2.35262,-6.377606,0.124883\H,0,-4.405456,-1.211843,-4.6
 52181\H,0,3.651843,0.733427,-5.689815\H,0,-8.280112,2.28473,-2.632813\
 H,0,-4.831084,-5.290081,4.469834\H,0,-3.689854,-6.548481,3.953556\H,0,
 -7.38638,2.878881,6.242401\H,0,-6.785047,3.917245,4.925776\H,0,-3.4615
 95,8.279752,1.477329\H,0,-3.768879,6.897654,2.559898\H,0,6.868389,-5.0
 55592,3.286425\H,0,7.850095,-5.019481,4.760239\H,0,10.644549,4.804372,
 0.290049\H,0,10.600211,6.12056,1.467195\H,0,7.126761,3.046904,-2.62042
 7\H,0,1.191333,5.852496,-2.030534\H,0,-5.020089,-2.13764,1.097474\C,0,
 -8.745584,0.281133,-2.13908\O,0,-9.954075,0.430911,-2.287654\N,0,-8.15
 9307,-0.914127,-1.849151\H,0,-7.143272,-0.949775,-1.868311\C,0,-8.9309
 87,-2.131282,-1.784922\H,0,-8.470817,-2.830215,-1.078937\H,0,-9.941426
 ,-1.890392,-1.448979\H,0,-9.013765,-2.629694,-2.760694\\Version=ES64L-
 G09RevD.01\HF=-6758.3899595\S2=0.754613\S2-1=0.\S2A=0.75002\RMSD=1.668
 e-09\Dipole=5.2650732,1.4808597,-2.5236412\Quadrupole=-41.775506,58.21
 87009,-16.4431949,-7.3457199,-32.5450554,-11.5589665\PG=C01 [X(C77H115
 Cl4Co1N12O6)]\\@


 TO ERR IS HUMAN - AND TO BLAME IT ON A COMPUTER IS EVEN MORE SO.
 Job cpu time:      34 days  0 hours 34 minutes 37.8 seconds.
 File lengths (MBytes):  RWF=  13280 Int=      0 D2E=      0 Chk=    864 Scr=      2
 Normal termination of Gaussian 09 at Wed Aug 28 22:42:09 2024.
