 Entering Gaussian System, Link 0=g09
 Initial command:
 /apps/z_install_tree/linux-rocky8-ivybridge/gcc-12.2.0/gaussian-09-D.01-wczn3gur5lpur3omlkzwa2l5ecyxp5ef/g09/l1.exe "/srv/scratch/z5112331/GMX/ligands/Trifluorochloroethene/Gau-2000070.inp" -scrdir="/srv/scratch/z5112331/GMX/ligands/Trifluorochloroethene/"
 Entering Link 1 = /apps/z_install_tree/linux-rocky8-ivybridge/gcc-12.2.0/gaussian-09-D.01-wczn3gur5lpur3omlkzwa2l5ecyxp5ef/g09/l1.exe PID=   2000071.
  
 Copyright (c) 1988,1990,1992,1993,1995,1998,2003,2009,2013,
            Gaussian, Inc.  All Rights Reserved.
  
 This is part of the Gaussian(R) 09 program.  It is based on
 the Gaussian(R) 03 system (copyright 2003, Gaussian, Inc.),
 the Gaussian(R) 98 system (copyright 1998, Gaussian, Inc.),
 the Gaussian(R) 94 system (copyright 1995, Gaussian, Inc.),
 the Gaussian 92(TM) system (copyright 1992, Gaussian, Inc.),
 the Gaussian 90(TM) system (copyright 1990, Gaussian, Inc.),
 the Gaussian 88(TM) system (copyright 1988, Gaussian, Inc.),
 the Gaussian 86(TM) system (copyright 1986, Carnegie Mellon
 University), and the Gaussian 82(TM) system (copyright 1983,
 Carnegie Mellon University). Gaussian is a federally registered
 trademark of Gaussian, Inc.
  
 This software contains proprietary and confidential information,
 including trade secrets, belonging to Gaussian, Inc.
  
 This software is provided under written license and may be
 used, copied, transmitted, or stored only in accord with that
 written license.
  
 The following legend is applicable only to US Government
 contracts under FAR:
  
                    RESTRICTED RIGHTS LEGEND
  
 Use, reproduction and disclosure by the US Government is
 subject to restrictions as set forth in subparagraphs (a)
 and (c) of the Commercial Computer Software - Restricted
 Rights clause in FAR 52.227-19.
  
 Gaussian, Inc.
 340 Quinnipiac St., Bldg. 40, Wallingford CT 06492
  
  
 ---------------------------------------------------------------
 Warning -- This program may not be used in any manner that
 competes with the business of Gaussian, Inc. or will provide
 assistance to any competitor of Gaussian, Inc.  The licensee
 of this program is prohibited from giving any competitor of
 Gaussian, Inc. access to this program.  By using this program,
 the user acknowledges that Gaussian, Inc. is engaged in the
 business of creating and licensing software in the field of
 computational chemistry and represents and warrants to the
 licensee that it is not a competitor of Gaussian, Inc. and that
 it will not use this program in any manner prohibited above.
 ---------------------------------------------------------------
  

 Cite this work as:
 Gaussian 09, Revision D.01,
 M. J. Frisch, G. W. Trucks, H. B. Schlegel, G. E. Scuseria, 
 M. A. Robb, J. R. Cheeseman, G. Scalmani, V. Barone, B. Mennucci, 
 G. A. Petersson, H. Nakatsuji, M. Caricato, X. Li, H. P. Hratchian, 
 A. F. Izmaylov, J. Bloino, G. Zheng, J. L. Sonnenberg, M. Hada, 
 M. Ehara, K. Toyota, R. Fukuda, J. Hasegawa, M. Ishida, T. Nakajima, 
 Y. Honda, O. Kitao, H. Nakai, T. Vreven, J. A. Montgomery, Jr., 
 J. E. Peralta, F. Ogliaro, M. Bearpark, J. J. Heyd, E. Brothers, 
 K. N. Kudin, V. N. Staroverov, T. Keith, R. Kobayashi, J. Normand, 
 K. Raghavachari, A. Rendell, J. C. Burant, S. S. Iyengar, J. Tomasi, 
 M. Cossi, N. Rega, J. M. Millam, M. Klene, J. E. Knox, J. B. Cross, 
 V. Bakken, C. Adamo, J. Jaramillo, R. Gomperts, R. E. Stratmann, 
 O. Yazyev, A. J. Austin, R. Cammi, C. Pomelli, J. W. Ochterski, 
 R. L. Martin, K. Morokuma, V. G. Zakrzewski, G. A. Voth, 
 P. Salvador, J. J. Dannenberg, S. Dapprich, A. D. Daniels, 
 O. Farkas, J. B. Foresman, J. V. Ortiz, J. Cioslowski, 
 and D. J. Fox, Gaussian, Inc., Wallingford CT, 2013.
 
 ******************************************
 Gaussian 09:  ES64L-G09RevD.01 24-Apr-2013
                13-Jun-2024 
 ******************************************
 %chk=Trifluorochloroethene.chk
 %mem=8GB
 %nprocshared=20
 Will use up to   20 processors via shared memory.
 -------------------------------------------------------------------
 #p opt freq b3lyp/gen nosymm em=gd3 int=ultrafine scf=xqc scfcyc=96
 -------------------------------------------------------------------
 1/14=-1,18=20,19=15,26=4,38=1/1,3;
 2/9=110,12=2,15=1,17=6,18=5,40=1/2;
 3/5=7,11=2,16=1,25=1,30=1,71=1,74=-5,75=-5,124=31/1,2,3;
 4//1;
 5/5=2,7=96,8=3,13=1,38=5/2,8;
 6/7=2,8=2,9=2,10=2,28=1/1;
 7/30=1/1,2,3,16;
 1/14=-1,18=20,19=15,26=4/3(2);
 2/9=110,15=1/2;
 99//99;
 2/9=110,15=1/2;
 3/5=7,6=1,11=2,16=1,25=1,30=1,71=1,74=-5,75=-5,82=7,124=31/1,2,3;
 4/5=5,16=3,69=1/1;
 5/5=2,7=96,8=3,13=1,38=5/2,8;
 7/30=1/1,2,3,16;
 1/14=-1,18=20,19=15,26=4/3(-5);
 2/9=110,15=1/2;
 6/7=2,8=2,9=2,10=2,19=2,28=1/1;
 99/9=1/99;
 Leave Link    1 at Thu Jun 13 10:38:27 2024, MaxMem=  1073741824 cpu:         1.5
 (Enter /apps/z_install_tree/linux-rocky8-ivybridge/gcc-12.2.0/gaussian-09-D.01-wczn3gur5lpur3omlkzwa2l5ecyxp5ef/g09/l101.exe)
 ---------------------
 Trifluorochloroethene
 ---------------------
 Symbolic Z-matrix:
 Charge =  0 Multiplicity = 1
 C                     49.83268   35.70312   32.6023 
 C                     50.65044   36.37612   31.79207 
 F                     49.64083   36.08897   34.27364 
 F                     48.89913   34.37476   32.00221 
 F                     50.76681   36.04319   30.50912 
 Cl                    51.63612   37.70884   32.23566 
 
 Add virtual bond connecting atoms F3         and C1         Dist= 3.26D+00.
 Add virtual bond connecting atoms F4         and C1         Dist= 3.27D+00.
 NAtoms=      6 NQM=        6 NQMF=       0 NMMI=      0 NMMIF=      0
                NMic=       0 NMicF=      0.
                    Isotopes and Nuclear Properties:
 (Nuclear quadrupole moments (NQMom) in fm**2, nuclear magnetic moments (NMagM)
  in nuclear magnetons)

  Atom         1           2           3           4           5           6
 IAtWgt=          12          12          19          19          19          35
 AtmWgt=  12.0000000  12.0000000  18.9984033  18.9984033  18.9984033  34.9688527
 NucSpn=           0           0           1           1           1           3
 AtZEff=   0.0000000   0.0000000   0.0000000   0.0000000   0.0000000   0.0000000
 NQMom=    0.0000000   0.0000000   0.0000000   0.0000000   0.0000000  -8.1650000
 NMagM=    0.0000000   0.0000000   2.6288670   2.6288670   2.6288670   0.8218740
 AtZNuc=   6.0000000   6.0000000   9.0000000   9.0000000   9.0000000  17.0000000
 Leave Link  101 at Thu Jun 13 10:38:27 2024, MaxMem=  1073741824 cpu:         3.0
 (Enter /apps/z_install_tree/linux-rocky8-ivybridge/gcc-12.2.0/gaussian-09-D.01-wczn3gur5lpur3omlkzwa2l5ecyxp5ef/g09/l103.exe)

 GradGradGradGradGradGradGradGradGradGradGradGradGradGradGradGradGradGrad
 Berny optimization.
 Initialization pass.
                           ----------------------------
                           !    Initial Parameters    !
                           ! (Angstroms and Degrees)  !
 --------------------------                            --------------------------
 ! Name  Definition              Value          Derivative Info.                !
 --------------------------------------------------------------------------------
 ! R1    R(1,2)                  1.3335         estimate D2E/DX2                !
 ! R2    R(1,3)                  1.726          estimate D2E/DX2                !
 ! R3    R(1,4)                  1.7309         estimate D2E/DX2                !
 ! R4    R(2,5)                  1.3305         estimate D2E/DX2                !
 ! R5    R(2,6)                  1.7159         estimate D2E/DX2                !
 ! A1    A(2,1,3)              122.9366         estimate D2E/DX2                !
 ! A2    A(2,1,4)              120.492          estimate D2E/DX2                !
 ! A3    A(3,1,4)              116.5713         estimate D2E/DX2                !
 ! A4    A(1,2,5)              120.879          estimate D2E/DX2                !
 ! A5    A(1,2,6)              125.9571         estimate D2E/DX2                !
 ! A6    A(5,2,6)              113.1639         estimate D2E/DX2                !
 ! D1    D(3,1,2,5)            179.9974         estimate D2E/DX2                !
 ! D2    D(3,1,2,6)             -0.0065         estimate D2E/DX2                !
 ! D3    D(4,1,2,5)              0.0046         estimate D2E/DX2                !
 ! D4    D(4,1,2,6)           -179.9994         estimate D2E/DX2                !
 --------------------------------------------------------------------------------
 Trust Radius=3.00D-01 FncErr=1.00D-07 GrdErr=1.00D-06
 Number of steps in this run=     25 maximum allowed number of steps=    100.
 GradGradGradGradGradGradGradGradGradGradGradGradGradGradGradGradGradGrad

 Leave Link  103 at Thu Jun 13 10:38:27 2024, MaxMem=  1073741824 cpu:         0.2
 (Enter /apps/z_install_tree/linux-rocky8-ivybridge/gcc-12.2.0/gaussian-09-D.01-wczn3gur5lpur3omlkzwa2l5ecyxp5ef/g09/l202.exe)
                          Input orientation:                          
 ---------------------------------------------------------------------
 Center     Atomic      Atomic             Coordinates (Angstroms)
 Number     Number       Type             X           Y           Z
 ---------------------------------------------------------------------
      1          6           0       49.832676   35.703124   32.602296
      2          6           0       50.650444   36.376117   31.792073
      3          9           0       49.640826   36.088965   34.273638
      4          9           0       48.899128   34.374762   32.002207
      5          9           0       50.766812   36.043191   30.509122
      6         17           0       51.636115   37.708841   32.235663
 ---------------------------------------------------------------------
                    Distance matrix (angstroms):
                    1          2          3          4          5
     1  C    0.000000
     2  C    1.333464   0.000000
     3  F    1.725996   2.694429   0.000000
     4  F    1.730943   2.667712   2.940749   0.000000
     5  F    2.317247   1.330543   3.929570   2.915682   0.000000
     6  Cl   2.722079   1.715947   3.280018   4.319917   2.551670
                    6
     6  Cl   0.000000
 Symmetry turned off by external request.
 Stoichiometry    C2ClF3
 Framework group  C1[X(C2ClF3)]
 Deg. of freedom    12
 Full point group                 C1      NOp   1
 Rotational constants (GHZ):      3.5016133      1.9688828      1.2602634
 Leave Link  202 at Thu Jun 13 10:38:27 2024, MaxMem=  1073741824 cpu:         0.4
 (Enter /apps/z_install_tree/linux-rocky8-ivybridge/gcc-12.2.0/gaussian-09-D.01-wczn3gur5lpur3omlkzwa2l5ecyxp5ef/g09/l301.exe)
 General basis read from cards:  (5D, 7F)
 Centers:       6      3      4      5      1      2
 6-311+g(2d,2p)
 ****
 Ernie: Thresh=  0.10000D-02 Tol=  0.10000D-05 Strict=F.
   170 basis functions,   269 primitive gaussians,   182 cartesian basis functions
    28 alpha electrons       28 beta electrons
       nuclear repulsion energy       269.1014527086 Hartrees.
 IExCor=  402 DFT=T Ex+Corr=B3LYP ExCW=0 ScaHFX=  0.200000
 ScaDFX=  0.800000  0.720000  1.000000  0.810000 ScalE2=  1.000000  1.000000
 IRadAn=      5 IRanWt=     -1 IRanGd=            0 ICorTp=0 IEmpDi=131
 NAtoms=    6 NActive=    6 NUniq=    6 SFac= 1.00D+00 NAtFMM=   60 NAOKFM=F Big=F
 Integral buffers will be    131072 words long.
 Raffenetti 2 integral format.
 Two-electron integral symmetry is turned off.
 R6Disp:  Grimme-D3 Dispersion energy=       -0.0028865441 Hartrees.
 Nuclear repulsion after empirical dispersion term =      269.0985661646 Hartrees.
 Leave Link  301 at Thu Jun 13 10:38:27 2024, MaxMem=  1073741824 cpu:         1.1
 (Enter /apps/z_install_tree/linux-rocky8-ivybridge/gcc-12.2.0/gaussian-09-D.01-wczn3gur5lpur3omlkzwa2l5ecyxp5ef/g09/l302.exe)
 NPDir=0 NMtPBC=     1 NCelOv=     1 NCel=       1 NClECP=     1 NCelD=      1
         NCelK=      1 NCelE2=     1 NClLst=     1 CellRange=     0.0.
 One-electron integrals computed using PRISM.
 NBasis=   170 RedAO= T EigKep=  6.97D-05  NBF=   170
 NBsUse=   170 1.00D-06 EigRej= -1.00D+00 NBFU=   170
 Precomputing XC quadrature grid using
 IXCGrd= 4 IRadAn=           5 IRanWt=          -1 IRanGd=           0 AccXCQ= 0.00D+00.
 Generated NRdTot=       0 NPtTot=           0 NUsed=           0 NTot=          32
 NSgBfM=   182   182   182   182   182 MxSgAt=     6 MxSgA2=     6.
 Leave Link  302 at Thu Jun 13 10:38:28 2024, MaxMem=  1073741824 cpu:         2.4
 (Enter /apps/z_install_tree/linux-rocky8-ivybridge/gcc-12.2.0/gaussian-09-D.01-wczn3gur5lpur3omlkzwa2l5ecyxp5ef/g09/l303.exe)
 DipDrv:  MaxL=1.
 Leave Link  303 at Thu Jun 13 10:38:28 2024, MaxMem=  1073741824 cpu:         0.4
 (Enter /apps/z_install_tree/linux-rocky8-ivybridge/gcc-12.2.0/gaussian-09-D.01-wczn3gur5lpur3omlkzwa2l5ecyxp5ef/g09/l401.exe)
 ExpMin= 4.38D-02 ExpMax= 1.06D+05 ExpMxC= 3.62D+03 IAcc=3 IRadAn=         5 AccDes= 0.00D+00
 Harris functional with IExCor=  402 and IRadAn=       5 diagonalized for initial guess.
 HarFok:  IExCor=  402 AccDes= 0.00D+00 IRadAn=         5 IDoV= 1 UseB2=F ITyADJ=14
 ICtDFT=  3500011 ScaDFX=  1.000000  1.000000  1.000000  1.000000
 FoFCou: FMM=F IPFlag=           0 FMFlag=      100000 FMFlg1=           0
         NFxFlg=           0 DoJE=T BraDBF=F KetDBF=T FulRan=T
         wScrn=  0.000000 ICntrl=     500 IOpCl=  0 I1Cent=   200000004 NGrid=           0
         NMat0=    1 NMatS0=      1 NMatT0=    0 NMatD0=    1 NMtDS0=    0 NMtDT0=    0
 Symmetry not used in FoFCou.
 Harris En= -835.844205870649    
 JPrj=0 DoOrth=F DoCkMO=F.
 Leave Link  401 at Thu Jun 13 10:38:28 2024, MaxMem=  1073741824 cpu:         3.8
 (Enter /apps/z_install_tree/linux-rocky8-ivybridge/gcc-12.2.0/gaussian-09-D.01-wczn3gur5lpur3omlkzwa2l5ecyxp5ef/g09/l502.exe)
 Closed shell SCF:
 Using DIIS extrapolation, IDIIS=  1040.
 Two-electron integral symmetry not used.
 Keep R1 ints in memory in canonical form, NReq=108819870.
 IVT=      115338 IEndB=      115338 NGot=  1073741824 MDV=   967986107
 LenX=   967986107 LenY=   967952542
 Requested convergence on RMS density matrix=1.00D-08 within  96 cycles.
 Requested convergence on MAX density matrix=1.00D-06.
 Requested convergence on             energy=1.00D-06.
 No special actions if energy rises.
 FoFCou: FMM=F IPFlag=           0 FMFlag=           0 FMFlg1=           0
         NFxFlg=           0 DoJE=F BraDBF=F KetDBF=F FulRan=T
         wScrn=  0.000000 ICntrl=     600 IOpCl=  0 I1Cent=           0 NGrid=           0
         NMat0=    1 NMatS0=  14535 NMatT0=    0 NMatD0=    1 NMtDS0=    0 NMtDT0=    0
 Symmetry not used in FoFCou.

 Cycle   1  Pass 1  IDiag  1:
 E= -835.818049509565    
 DIIS: error= 2.32D-02 at cycle   1 NSaved=   1.
 NSaved= 1 IEnMin= 1 EnMin= -835.818049509565     IErMin= 1 ErrMin= 2.32D-02
 ErrMax= 2.32D-02  0.00D+00 EMaxC= 1.00D-01 BMatC= 1.32D-01 BMatP= 1.32D-01
 IDIUse=3 WtCom= 7.68D-01 WtEn= 2.32D-01
 Coeff-Com:  0.100D+01
 Coeff-En:   0.100D+01
 Coeff:      0.100D+01
 Gap=     0.207 Goal=   None    Shift=    0.000
 GapD=    0.207 DampG=1.000 DampE=0.500 DampFc=0.5000 IDamp=-1.
 Damping current iteration by 5.00D-01
 RMSDP=4.14D-03 MaxDP=1.92D-01              OVMax= 2.64D-01

 Cycle   2  Pass 1  IDiag  1:
 E= -835.789876788245     Delta-E=        0.028172721319 Rises=F Damp=T
 DIIS: error= 1.67D-02 at cycle   2 NSaved=   2.
 NSaved= 2 IEnMin= 1 EnMin= -835.818049509565     IErMin= 2 ErrMin= 1.67D-02
 ErrMax= 1.67D-02  0.00D+00 EMaxC= 1.00D-01 BMatC= 6.64D-02 BMatP= 1.32D-01
 IDIUse=3 WtCom= 8.33D-01 WtEn= 1.67D-01
 Coeff-Com:  0.385D+00 0.615D+00
 Coeff-En:   0.597D+00 0.403D+00
 Coeff:      0.421D+00 0.579D+00
 Gap=     0.209 Goal=   None    Shift=    0.000
 RMSDP=1.37D-03 MaxDP=6.64D-02 DE= 2.82D-02 OVMax= 2.03D-01

 Cycle   3  Pass 1  IDiag  1:
 E= -835.887134917662     Delta-E=       -0.097258129417 Rises=F Damp=F
 DIIS: error= 7.43D-03 at cycle   3 NSaved=   3.
 NSaved= 3 IEnMin= 3 EnMin= -835.887134917662     IErMin= 3 ErrMin= 7.43D-03
 ErrMax= 7.43D-03  0.00D+00 EMaxC= 1.00D-01 BMatC= 1.28D-02 BMatP= 6.64D-02
 IDIUse=3 WtCom= 9.26D-01 WtEn= 7.43D-02
 Coeff-Com:  0.630D-01 0.290D+00 0.647D+00
 Coeff-En:   0.000D+00 0.000D+00 0.100D+01
 Coeff:      0.583D-01 0.268D+00 0.673D+00
 Gap=     0.152 Goal=   None    Shift=    0.000
 RMSDP=8.05D-04 MaxDP=2.89D-02 DE=-9.73D-02 OVMax= 5.63D-02

 Cycle   4  Pass 1  IDiag  1:
 E= -835.893076730825     Delta-E=       -0.005941813163 Rises=F Damp=F
 DIIS: error= 5.01D-03 at cycle   4 NSaved=   4.
 NSaved= 4 IEnMin= 4 EnMin= -835.893076730825     IErMin= 4 ErrMin= 5.01D-03
 ErrMax= 5.01D-03  0.00D+00 EMaxC= 1.00D-01 BMatC= 5.16D-03 BMatP= 1.28D-02
 IDIUse=3 WtCom= 9.50D-01 WtEn= 5.01D-02
 Coeff-Com: -0.563D-02 0.849D-01 0.426D+00 0.494D+00
 Coeff-En:   0.000D+00 0.000D+00 0.335D+00 0.665D+00
 Coeff:     -0.535D-02 0.807D-01 0.422D+00 0.503D+00
 Gap=     0.159 Goal=   None    Shift=    0.000
 RMSDP=3.34D-04 MaxDP=1.08D-02 DE=-5.94D-03 OVMax= 3.01D-02

 Cycle   5  Pass 1  IDiag  1:
 E= -835.897429646840     Delta-E=       -0.004352916015 Rises=F Damp=F
 DIIS: error= 1.11D-03 at cycle   5 NSaved=   5.
 NSaved= 5 IEnMin= 5 EnMin= -835.897429646840     IErMin= 5 ErrMin= 1.11D-03
 ErrMax= 1.11D-03  0.00D+00 EMaxC= 1.00D-01 BMatC= 2.38D-04 BMatP= 5.16D-03
 IDIUse=3 WtCom= 9.89D-01 WtEn= 1.11D-02
 Coeff-Com: -0.843D-02 0.227D-01 0.173D+00 0.272D+00 0.541D+00
 Coeff-En:   0.000D+00 0.000D+00 0.000D+00 0.000D+00 0.100D+01
 Coeff:     -0.834D-02 0.225D-01 0.171D+00 0.269D+00 0.546D+00
 Gap=     0.157 Goal=   None    Shift=    0.000
 RMSDP=6.91D-05 MaxDP=2.38D-03 DE=-4.35D-03 OVMax= 5.08D-03

 Cycle   6  Pass 1  IDiag  1:
 E= -835.897580272658     Delta-E=       -0.000150625818 Rises=F Damp=F
 DIIS: error= 3.13D-04 at cycle   6 NSaved=   6.
 NSaved= 6 IEnMin= 6 EnMin= -835.897580272658     IErMin= 6 ErrMin= 3.13D-04
 ErrMax= 3.13D-04  0.00D+00 EMaxC= 1.00D-01 BMatC= 4.15D-05 BMatP= 2.38D-04
 IDIUse=3 WtCom= 9.97D-01 WtEn= 3.13D-03
 Coeff-Com: -0.475D-02 0.744D-02 0.733D-01 0.133D+00 0.361D+00 0.430D+00
 Coeff-En:   0.000D+00 0.000D+00 0.000D+00 0.000D+00 0.132D+00 0.868D+00
 Coeff:     -0.474D-02 0.741D-02 0.731D-01 0.132D+00 0.360D+00 0.432D+00
 Gap=     0.157 Goal=   None    Shift=    0.000
 RMSDP=3.05D-05 MaxDP=8.08D-04 DE=-1.51D-04 OVMax= 1.89D-03

 Cycle   7  Pass 1  IDiag  1:
 E= -835.897612016005     Delta-E=       -0.000031743348 Rises=F Damp=F
 DIIS: error= 1.27D-04 at cycle   7 NSaved=   7.
 NSaved= 7 IEnMin= 7 EnMin= -835.897612016005     IErMin= 7 ErrMin= 1.27D-04
 ErrMax= 1.27D-04  0.00D+00 EMaxC= 1.00D-01 BMatC= 3.45D-06 BMatP= 4.15D-05
 IDIUse=3 WtCom= 9.99D-01 WtEn= 1.27D-03
 Coeff-Com: -0.178D-02 0.124D-02 0.241D-01 0.502D-01 0.159D+00 0.254D+00
 Coeff-Com:  0.513D+00
 Coeff-En:   0.000D+00 0.000D+00 0.000D+00 0.000D+00 0.000D+00 0.000D+00
 Coeff-En:   0.100D+01
 Coeff:     -0.178D-02 0.124D-02 0.240D-01 0.501D-01 0.159D+00 0.254D+00
 Coeff:      0.514D+00
 Gap=     0.157 Goal=   None    Shift=    0.000
 RMSDP=8.82D-06 MaxDP=2.25D-04 DE=-3.17D-05 OVMax= 6.88D-04

 Cycle   8  Pass 1  IDiag  1:
 E= -835.897613845739     Delta-E=       -0.000001829734 Rises=F Damp=F
 DIIS: error= 5.46D-05 at cycle   8 NSaved=   8.
 NSaved= 8 IEnMin= 8 EnMin= -835.897613845739     IErMin= 8 ErrMin= 5.46D-05
 ErrMax= 5.46D-05  0.00D+00 EMaxC= 1.00D-01 BMatC= 7.47D-07 BMatP= 3.45D-06
 IDIUse=1 WtCom= 1.00D+00 WtEn= 0.00D+00
 Coeff-Com: -0.246D-03-0.473D-03 0.329D-02 0.963D-02 0.389D-01 0.763D-01
 Coeff-Com:  0.337D+00 0.536D+00
 Coeff:     -0.246D-03-0.473D-03 0.329D-02 0.963D-02 0.389D-01 0.763D-01
 Coeff:      0.337D+00 0.536D+00
 Gap=     0.157 Goal=   None    Shift=    0.000
 RMSDP=4.16D-06 MaxDP=1.11D-04 DE=-1.83D-06 OVMax= 2.17D-04

 Cycle   9  Pass 1  IDiag  1:
 E= -835.897614368841     Delta-E=       -0.000000523101 Rises=F Damp=F
 DIIS: error= 1.40D-05 at cycle   9 NSaved=   9.
 NSaved= 9 IEnMin= 9 EnMin= -835.897614368841     IErMin= 9 ErrMin= 1.40D-05
 ErrMax= 1.40D-05  0.00D+00 EMaxC= 1.00D-01 BMatC= 5.05D-08 BMatP= 7.47D-07
 IDIUse=1 WtCom= 1.00D+00 WtEn= 0.00D+00
 Coeff-Com:  0.365D-04-0.337D-03-0.274D-03 0.676D-03 0.634D-02 0.141D-01
 Coeff-Com:  0.129D+00 0.291D+00 0.560D+00
 Coeff:      0.365D-04-0.337D-03-0.274D-03 0.676D-03 0.634D-02 0.141D-01
 Coeff:      0.129D+00 0.291D+00 0.560D+00
 Gap=     0.157 Goal=   None    Shift=    0.000
 RMSDP=1.18D-06 MaxDP=3.56D-05 DE=-5.23D-07 OVMax= 1.02D-04

 Cycle  10  Pass 1  IDiag  1:
 E= -835.897614408776     Delta-E=       -0.000000039935 Rises=F Damp=F
 DIIS: error= 5.10D-06 at cycle  10 NSaved=  10.
 NSaved=10 IEnMin=10 EnMin= -835.897614408776     IErMin=10 ErrMin= 5.10D-06
 ErrMax= 5.10D-06  0.00D+00 EMaxC= 1.00D-01 BMatC= 6.68D-09 BMatP= 5.05D-08
 IDIUse=1 WtCom= 1.00D+00 WtEn= 0.00D+00
 Coeff-Com:  0.502D-04-0.162D-03-0.602D-03-0.852D-03-0.785D-03-0.301D-03
 Coeff-Com:  0.410D-01 0.119D+00 0.332D+00 0.510D+00
 Coeff:      0.502D-04-0.162D-03-0.602D-03-0.852D-03-0.785D-03-0.301D-03
 Coeff:      0.410D-01 0.119D+00 0.332D+00 0.510D+00
 Gap=     0.157 Goal=   None    Shift=    0.000
 RMSDP=3.89D-07 MaxDP=1.07D-05 DE=-3.99D-08 OVMax= 3.66D-05

 Cycle  11  Pass 1  IDiag  1:
 E= -835.897614413556     Delta-E=       -0.000000004781 Rises=F Damp=F
 DIIS: error= 1.40D-06 at cycle  11 NSaved=  11.
 NSaved=11 IEnMin=11 EnMin= -835.897614413556     IErMin=11 ErrMin= 1.40D-06
 ErrMax= 1.40D-06  0.00D+00 EMaxC= 1.00D-01 BMatC= 3.01D-10 BMatP= 6.68D-09
 IDIUse=1 WtCom= 1.00D+00 WtEn= 0.00D+00
 Coeff-Com:  0.216D-04-0.334D-04-0.193D-03-0.453D-03-0.105D-02-0.124D-02
 Coeff-Com: -0.133D-02 0.591D-02 0.391D-01 0.178D+00 0.781D+00
 Coeff:      0.216D-04-0.334D-04-0.193D-03-0.453D-03-0.105D-02-0.124D-02
 Coeff:     -0.133D-02 0.591D-02 0.391D-01 0.178D+00 0.781D+00
 Gap=     0.157 Goal=   None    Shift=    0.000
 RMSDP=9.83D-08 MaxDP=3.56D-06 DE=-4.78D-09 OVMax= 6.52D-06

 Cycle  12  Pass 1  IDiag  1:
 E= -835.897614413879     Delta-E=       -0.000000000322 Rises=F Damp=F
 DIIS: error= 8.98D-08 at cycle  12 NSaved=  12.
 NSaved=12 IEnMin=12 EnMin= -835.897614413879     IErMin=12 ErrMin= 8.98D-08
 ErrMax= 8.98D-08  0.00D+00 EMaxC= 1.00D-01 BMatC= 2.16D-12 BMatP= 3.01D-10
 IDIUse=1 WtCom= 1.00D+00 WtEn= 0.00D+00
 Coeff-Com:  0.240D-05-0.238D-05-0.140D-04-0.464D-04-0.100D-03-0.887D-04
 Coeff-Com: -0.124D-02-0.199D-02-0.247D-02 0.223D-01 0.141D+00 0.843D+00
 Coeff:      0.240D-05-0.238D-05-0.140D-04-0.464D-04-0.100D-03-0.887D-04
 Coeff:     -0.124D-02-0.199D-02-0.247D-02 0.223D-01 0.141D+00 0.843D+00
 Gap=     0.157 Goal=   None    Shift=    0.000
 RMSDP=1.65D-08 MaxDP=8.24D-07 DE=-3.22D-10 OVMax= 6.22D-07

 Cycle  13  Pass 1  IDiag  1:
 E= -835.897614413879     Delta-E=        0.000000000000 Rises=F Damp=F
 DIIS: error= 3.73D-08 at cycle  13 NSaved=  13.
 NSaved=13 IEnMin=12 EnMin= -835.897614413879     IErMin=13 ErrMin= 3.73D-08
 ErrMax= 3.73D-08  0.00D+00 EMaxC= 1.00D-01 BMatC= 2.55D-13 BMatP= 2.16D-12
 IDIUse=1 WtCom= 1.00D+00 WtEn= 0.00D+00
 Coeff-Com: -0.404D-06 0.104D-05 0.548D-05 0.938D-05 0.287D-04 0.278D-04
 Coeff-Com: -0.364D-03-0.108D-02-0.316D-02-0.151D-02 0.341D-02 0.278D+00
 Coeff-Com:  0.724D+00
 Coeff:     -0.404D-06 0.104D-05 0.548D-05 0.938D-05 0.287D-04 0.278D-04
 Coeff:     -0.364D-03-0.108D-02-0.316D-02-0.151D-02 0.341D-02 0.278D+00
 Coeff:      0.724D+00
 Gap=     0.157 Goal=   None    Shift=    0.000
 RMSDP=4.48D-09 MaxDP=2.16D-07 DE= 0.00D+00 OVMax= 1.60D-07

 SCF Done:  E(RB3LYP) =  -835.897614414     A.U. after   13 cycles
            NFock= 13  Conv=0.45D-08     -V/T= 2.0036
 KE= 8.328631544809D+02 PE=-2.522808050853D+03 EE= 5.849487157940D+02
 Leave Link  502 at Thu Jun 13 10:38:33 2024, MaxMem=  1073741824 cpu:        51.1
 (Enter /apps/z_install_tree/linux-rocky8-ivybridge/gcc-12.2.0/gaussian-09-D.01-wczn3gur5lpur3omlkzwa2l5ecyxp5ef/g09/l508.exe)
 QCSCF skips out because SCF is already converged.
 Leave Link  508 at Thu Jun 13 10:38:33 2024, MaxMem=  1073741824 cpu:         0.0
 (Enter /apps/z_install_tree/linux-rocky8-ivybridge/gcc-12.2.0/gaussian-09-D.01-wczn3gur5lpur3omlkzwa2l5ecyxp5ef/g09/l601.exe)
 Copying SCF densities to generalized density rwf, IOpCl= 0 IROHF=0.

 **********************************************************************

            Population analysis using the SCF density.

 **********************************************************************

 Alpha  occ. eigenvalues -- -101.63136 -24.77443 -24.72839 -24.72398 -10.40923
 Alpha  occ. eigenvalues --  -10.39870  -9.54472  -7.31028  -7.29911  -7.29888
 Alpha  occ. eigenvalues --   -1.31629  -1.18243  -1.17209  -0.94861  -0.83194
 Alpha  occ. eigenvalues --   -0.66389  -0.58422  -0.55622  -0.55432  -0.49674
 Alpha  occ. eigenvalues --   -0.47243  -0.45622  -0.43756  -0.43284  -0.42908
 Alpha  occ. eigenvalues --   -0.41411  -0.38896  -0.32676
 Alpha virt. eigenvalues --   -0.17012  -0.11469  -0.06517  -0.02629   0.00856
 Alpha virt. eigenvalues --    0.03974   0.04902   0.05005   0.07056   0.08490
 Alpha virt. eigenvalues --    0.08626   0.09148   0.10161   0.12487   0.14123
 Alpha virt. eigenvalues --    0.15993   0.19213   0.22800   0.23655   0.25606
 Alpha virt. eigenvalues --    0.27861   0.27907   0.29683   0.31080   0.32437
 Alpha virt. eigenvalues --    0.33091   0.33215   0.34486   0.37230   0.37851
 Alpha virt. eigenvalues --    0.38691   0.39727   0.42390   0.43991   0.44764
 Alpha virt. eigenvalues --    0.45439   0.47380   0.50324   0.57894   0.58712
 Alpha virt. eigenvalues --    0.62963   0.64419   0.65145   0.70173   0.74754
 Alpha virt. eigenvalues --    0.78799   0.81895   0.88867   0.91439   0.96808
 Alpha virt. eigenvalues --    1.02987   1.09504   1.13791   1.19740   1.27138
 Alpha virt. eigenvalues --    1.30494   1.31363   1.33833   1.33834   1.36993
 Alpha virt. eigenvalues --    1.37195   1.38413   1.39581   1.41825   1.45967
 Alpha virt. eigenvalues --    1.53031   1.85202   1.88662   1.91437   1.97350
 Alpha virt. eigenvalues --    1.98386   1.99706   1.99802   2.04276   2.06576
 Alpha virt. eigenvalues --    2.09535   2.09552   2.12111   2.20433   2.21407
 Alpha virt. eigenvalues --    2.26447   2.27550   2.33467   2.33706   2.34333
 Alpha virt. eigenvalues --    2.41548   2.43114   2.44341   2.57510   2.61832
 Alpha virt. eigenvalues --    2.62321   2.78321   2.83779   2.86391   2.99338
 Alpha virt. eigenvalues --    3.03024   3.17952   3.21016   3.24400   3.35187
 Alpha virt. eigenvalues --    3.38143   3.39530   3.47223   3.52504   3.68815
 Alpha virt. eigenvalues --    3.73410   4.00213   4.43794   6.24124   6.25656
 Alpha virt. eigenvalues --    6.27765   6.30460   6.32034   6.35806   6.37460
 Alpha virt. eigenvalues --    6.42559   6.60454   8.98937   9.00198   9.01420
 Alpha virt. eigenvalues --    9.01449   9.02743   9.04103   9.07631   9.09486
 Alpha virt. eigenvalues --    9.13646   9.19186   9.19864   9.32490   9.38312
 Alpha virt. eigenvalues --    9.45470   9.62975   9.80519  23.34007  23.90768
 Alpha virt. eigenvalues --   25.77962  26.00146  27.15084  66.73050  66.73529
 Alpha virt. eigenvalues --   66.75963 215.75971
          Condensed to atoms (all electrons):
               1          2          3          4          5          6
     1  C    5.455757   0.006553   0.236893   0.269234  -0.102876   0.006087
     2  C    0.006553   5.359115  -0.078834  -0.096443   0.172636   0.271787
     3  F    0.236893  -0.078834   9.052347  -0.014831   0.002961   0.012658
     4  F    0.269234  -0.096443  -0.014831   9.047723   0.005463   0.007693
     5  F   -0.102876   0.172636   0.002961   0.005463   9.202741  -0.076400
     6  Cl   0.006087   0.271787   0.012658   0.007693  -0.076400  16.637156
 Mulliken charges:
               1
     1  C    0.128352
     2  C    0.365186
     3  F   -0.211194
     4  F   -0.218839
     5  F   -0.204525
     6  Cl   0.141019
 Sum of Mulliken charges =   0.00000
 Mulliken charges with hydrogens summed into heavy atoms:
               1
     1  C    0.128352
     2  C    0.365186
     3  F   -0.211194
     4  F   -0.218839
     5  F   -0.204525
     6  Cl   0.141019
 Electronic spatial extent (au):  <R**2>=         980496.5510
 Charge=              0.0000 electrons
 Dipole moment (field-independent basis, Debye):
    X=              1.8355    Y=              1.8446    Z=             -0.9092  Tot=              2.7565
 Quadrupole moment (field-independent basis, Debye-Ang):
   XX=            145.8102   YY=             94.5723   ZZ=           -100.8939
   XY=            158.8669   XZ=             14.4449   YZ=             26.3719
 Traceless Quadrupole moment (field-independent basis, Debye-Ang):
   XX=             99.3140   YY=             48.0761   ZZ=           -147.3901
   XY=            158.8669   XZ=             14.4449   YZ=             26.3719
 Octapole moment (field-independent basis, Debye-Ang**2):
  XXX=           8053.7313  YYY=           3009.7961  ZZZ=          -6928.9116  XYY=           7136.3368
  XXY=           9908.8785  XXZ=           2500.8194  XZZ=          -3108.6807  YZZ=          -1752.4340
  YYZ=           1844.6553  XYZ=           3494.1481
 Hexadecapole moment (field-independent basis, Debye-Ang**3):
 XXXX=         341040.8601 YYYY=          41947.8705 ZZZZ=        -386464.8079 XXXY=         523428.4667
 XXXZ=         151510.2891 YYYX=         236965.7514 YYYZ=          53238.8170 ZZZX=        -284444.0477
 ZZZY=        -190112.4745 XXYY=         427652.8725 XXZZ=         -97948.4111 YYZZ=         -35232.3634
 XXYZ=         239444.3965 YYXZ=         170891.3464 ZZXY=         -17322.1335
 N-N= 2.690985661646D+02 E-N=-2.522808050237D+03  KE= 8.328631544809D+02
 No NMR shielding tensors so no spin-rotation constants.
 Leave Link  601 at Thu Jun 13 10:38:33 2024, MaxMem=  1073741824 cpu:         1.6
 (Enter /apps/z_install_tree/linux-rocky8-ivybridge/gcc-12.2.0/gaussian-09-D.01-wczn3gur5lpur3omlkzwa2l5ecyxp5ef/g09/l701.exe)
 Compute integral first derivatives.
 ... and contract with generalized density number  0.
 R6Disp: Adding Grimme-D3 dispersion energy 1st derivatives to the gradient.
 Leave Link  701 at Thu Jun 13 10:38:33 2024, MaxMem=  1073741824 cpu:         1.8
 (Enter /apps/z_install_tree/linux-rocky8-ivybridge/gcc-12.2.0/gaussian-09-D.01-wczn3gur5lpur3omlkzwa2l5ecyxp5ef/g09/l702.exe)
 L702 exits ... SP integral derivatives will be done elsewhere.
 Leave Link  702 at Thu Jun 13 10:38:33 2024, MaxMem=  1073741824 cpu:         0.2
 (Enter /apps/z_install_tree/linux-rocky8-ivybridge/gcc-12.2.0/gaussian-09-D.01-wczn3gur5lpur3omlkzwa2l5ecyxp5ef/g09/l703.exe)
 Compute integral first derivatives, UseDBF=F ICtDFT=           0.
 Integral derivatives from FoFJK, PRISM(SPDF).
 Calling FoFJK, ICntrl=      2127 FMM=F ISym2X=0 I1Cent= 0 IOpClX= 0 NMat=1 NMatS=1 NMatT=0.
 FoFJK:  IHMeth= 1 ICntrl=    2127 DoSepK=F KAlg= 0 I1Cent=   0 FoldK=F
 IRaf=         0 NMat=   1 IRICut=       1 DoRegI=T DoRafI=F ISym2E= 0.
 FoFCou: FMM=F IPFlag=           0 FMFlag=      100000 FMFlg1=         800
         NFxFlg=           0 DoJE=F BraDBF=F KetDBF=F FulRan=T
         wScrn=  0.000000 ICntrl=    2127 IOpCl=  0 I1Cent=           0 NGrid=           0
         NMat0=    1 NMatS0=      1 NMatT0=    0 NMatD0=    1 NMtDS0=    0 NMtDT0=    0
 Symmetry not used in FoFCou.
 Leave Link  703 at Thu Jun 13 10:38:34 2024, MaxMem=  1073741824 cpu:        13.6
 (Enter /apps/z_install_tree/linux-rocky8-ivybridge/gcc-12.2.0/gaussian-09-D.01-wczn3gur5lpur3omlkzwa2l5ecyxp5ef/g09/l716.exe)
 Dipole        = 7.22137207D-01 7.25740289D-01-3.57694418D-01
 -------------------------------------------------------------------
 Center     Atomic                   Forces (Hartrees/Bohr)
 Number     Number              X              Y              Z
 -------------------------------------------------------------------
      1        6          -0.054773237   -0.045190278    0.054010881
      2        6          -0.004074066   -0.004984232   -0.000417040
      3        9           0.010146331   -0.029614529   -0.113475110
      4        9           0.059949461    0.087663106    0.044962807
      5        9          -0.004869933   -0.001752467    0.010973713
      6       17          -0.006378555   -0.006121599    0.003944750
 -------------------------------------------------------------------
 Cartesian Forces:  Max     0.113475110 RMS     0.044346471
 Leave Link  716 at Thu Jun 13 10:38:34 2024, MaxMem=  1073741824 cpu:         0.4
 (Enter /apps/z_install_tree/linux-rocky8-ivybridge/gcc-12.2.0/gaussian-09-D.01-wczn3gur5lpur3omlkzwa2l5ecyxp5ef/g09/l103.exe)

 GradGradGradGradGradGradGradGradGradGradGradGradGradGradGradGradGradGrad
 Berny optimization.
 FormGI is forming the generalized inverse of G from B-inverse, IUseBI=4.
 Internal  Forces:  Max     0.117629737 RMS     0.043425887
 Search for a local minimum.
 Step number   1 out of a maximum of   25
 All quantities printed in internal units (Hartrees-Bohrs-Radians)
 RMS Force = .43426D-01 SwitMx=.10000D-02 MixMth= 1
 Mixed Optimization -- RFO/linear search
 Second derivative matrix not updated -- first step.
 The second derivative matrix:
                          R1        R2        R3        R4        R5
           R1           0.58695
           R2           0.00000   0.16814
           R3           0.00000   0.00000   0.16599
           R4           0.00000   0.00000   0.00000   0.59378
           R5           0.00000   0.00000   0.00000   0.00000   0.34037
           A1           0.00000   0.00000   0.00000   0.00000   0.00000
           A2           0.00000   0.00000   0.00000   0.00000   0.00000
           A3           0.00000   0.00000   0.00000   0.00000   0.00000
           A4           0.00000   0.00000   0.00000   0.00000   0.00000
           A5           0.00000   0.00000   0.00000   0.00000   0.00000
           A6           0.00000   0.00000   0.00000   0.00000   0.00000
           D1           0.00000   0.00000   0.00000   0.00000   0.00000
           D2           0.00000   0.00000   0.00000   0.00000   0.00000
           D3           0.00000   0.00000   0.00000   0.00000   0.00000
           D4           0.00000   0.00000   0.00000   0.00000   0.00000
                          A1        A2        A3        A4        A5
           A1           0.25000
           A2           0.00000   0.25000
           A3           0.00000   0.00000   0.25000
           A4           0.00000   0.00000   0.00000   0.25000
           A5           0.00000   0.00000   0.00000   0.00000   0.25000
           A6           0.00000   0.00000   0.00000   0.00000   0.00000
           D1           0.00000   0.00000   0.00000   0.00000   0.00000
           D2           0.00000   0.00000   0.00000   0.00000   0.00000
           D3           0.00000   0.00000   0.00000   0.00000   0.00000
           D4           0.00000   0.00000   0.00000   0.00000   0.00000
                          A6        D1        D2        D3        D4
           A6           0.25000
           D1           0.00000   0.02969
           D2           0.00000   0.00000   0.02969
           D3           0.00000   0.00000   0.00000   0.02969
           D4           0.00000   0.00000   0.00000   0.00000   0.02969
 ITU=  0
     Eigenvalues ---    0.02969   0.02969   0.02969   0.16599   0.16814
     Eigenvalues ---    0.25000   0.25000   0.25000   0.25000   0.34037
     Eigenvalues ---    0.58695   0.59378
 RFO step:  Lambda=-1.02764203D-01 EMin= 2.96890367D-02
 Linear search not attempted -- first point.
 Maximum step size (   0.300) exceeded in Quadratic search.
    -- Step size scaled by   0.488
 Iteration  1 RMS(Cart)=  0.07516657 RMS(Int)=  0.00399335
 Iteration  2 RMS(Cart)=  0.00372085 RMS(Int)=  0.00000108
 Iteration  3 RMS(Cart)=  0.00000168 RMS(Int)=  0.00000000
 Iteration  4 RMS(Cart)=  0.00000000 RMS(Int)=  0.00000000
 ITry= 1 IFail=0 DXMaxC= 1.98D-01 DCOld= 1.00D+10 DXMaxT= 3.00D-01 DXLimC= 3.00D+00 Rises=F
 Variable       Old X    -DE/DX   Delta X   Delta X   Delta X     New X
                                 (Linear)    (Quad)   (Total)
    R1        2.51988  -0.02470   0.00000  -0.01749  -0.01749   2.50239
    R2        3.26166  -0.11763   0.00000  -0.21207  -0.21207   3.04959
    R3        3.27101  -0.11519   0.00000  -0.20934  -0.20934   3.06167
    R4        2.51436  -0.01057   0.00000  -0.00741  -0.00741   2.50695
    R5        3.24267  -0.00740   0.00000  -0.00815  -0.00815   3.23451
    A1        2.14565   0.00364   0.00000   0.00504   0.00504   2.15069
    A2        2.10298   0.00722   0.00000   0.01000   0.01000   2.11298
    A3        2.03455  -0.01086   0.00000  -0.01504  -0.01504   2.01951
    A4        2.10974  -0.00324   0.00000  -0.00449  -0.00449   2.10525
    A5        2.19837  -0.00850   0.00000  -0.01177  -0.01177   2.18660
    A6        1.97508   0.01174   0.00000   0.01626   0.01626   1.99134
    D1        3.14155   0.00000   0.00000   0.00000   0.00000   3.14154
    D2       -0.00011   0.00000   0.00000   0.00000   0.00000  -0.00011
    D3        0.00008   0.00000   0.00000   0.00000   0.00000   0.00008
    D4       -3.14158   0.00000   0.00000   0.00000   0.00000  -3.14158
         Item               Value     Threshold  Converged?
 Maximum Force            0.117630     0.000450     NO 
 RMS     Force            0.043426     0.000300     NO 
 Maximum Displacement     0.198259     0.001800     NO 
 RMS     Displacement     0.078792     0.001200     NO 
 Predicted change in Energy=-4.255853D-02
 Lowest energy point so far.  Saving SCF results.
 GradGradGradGradGradGradGradGradGradGradGradGradGradGradGradGradGradGrad

 Leave Link  103 at Thu Jun 13 10:38:35 2024, MaxMem=  1073741824 cpu:         1.3
 (Enter /apps/z_install_tree/linux-rocky8-ivybridge/gcc-12.2.0/gaussian-09-D.01-wczn3gur5lpur3omlkzwa2l5ecyxp5ef/g09/l202.exe)
                          Input orientation:                          
 ---------------------------------------------------------------------
 Center     Atomic      Atomic             Coordinates (Angstroms)
 Number     Number       Type             X           Y           Z
 ---------------------------------------------------------------------
      1          6           0       49.827873   35.698577   32.605446
      2          6           0       50.639585   36.366052   31.799759
      3          9           0       49.644291   36.054558   34.168724
      4          9           0       48.947051   34.452904   32.060118
      5          9           0       50.750717   36.028660   30.521580
      6         17           0       51.616483   37.694249   32.259372
 ---------------------------------------------------------------------
                    Distance matrix (angstroms):
                    1          2          3          4          5
     1  C    0.000000
     2  C    1.324209   0.000000
     3  F    1.613773   2.588365   0.000000
     4  F    1.620164   2.567604   2.738186   0.000000
     5  F    2.302844   1.326621   3.811366   2.846633   0.000000
     6  Cl   2.702147   1.711631   3.197460   4.203794   2.558057
                    6
     6  Cl   0.000000
 Symmetry turned off by external request.
 Stoichiometry    C2ClF3
 Framework group  C1[X(C2ClF3)]
 Deg. of freedom    12
 Full point group                 C1      NOp   1
 Rotational constants (GHZ):      3.7590059      2.0533302      1.3279480
 Leave Link  202 at Thu Jun 13 10:38:35 2024, MaxMem=  1073741824 cpu:         0.1
 (Enter /apps/z_install_tree/linux-rocky8-ivybridge/gcc-12.2.0/gaussian-09-D.01-wczn3gur5lpur3omlkzwa2l5ecyxp5ef/g09/l301.exe)
 Basis read from rwf:  (5D, 7F)
 No pseudopotential information found on rwf file.
   170 basis functions,   269 primitive gaussians,   182 cartesian basis functions
    28 alpha electrons       28 beta electrons
       nuclear repulsion energy       275.5487866984 Hartrees.
 IExCor=  402 DFT=T Ex+Corr=B3LYP ExCW=0 ScaHFX=  0.200000
 ScaDFX=  0.800000  0.720000  1.000000  0.810000 ScalE2=  1.000000  1.000000
 IRadAn=      5 IRanWt=     -1 IRanGd=            0 ICorTp=0 IEmpDi=131
 NAtoms=    6 NActive=    6 NUniq=    6 SFac= 1.00D+00 NAtFMM=   60 NAOKFM=F Big=F
 Integral buffers will be    131072 words long.
 Raffenetti 2 integral format.
 Two-electron integral symmetry is turned off.
 R6Disp:  Grimme-D3 Dispersion energy=       -0.0028796536 Hartrees.
 Nuclear repulsion after empirical dispersion term =      275.5459070448 Hartrees.
 No density basis found on file   724.
 Leave Link  301 at Thu Jun 13 10:38:35 2024, MaxMem=  1073741824 cpu:         1.2
 (Enter /apps/z_install_tree/linux-rocky8-ivybridge/gcc-12.2.0/gaussian-09-D.01-wczn3gur5lpur3omlkzwa2l5ecyxp5ef/g09/l302.exe)
 NPDir=0 NMtPBC=     1 NCelOv=     1 NCel=       1 NClECP=     1 NCelD=      1
         NCelK=      1 NCelE2=     1 NClLst=     1 CellRange=     0.0.
 One-electron integrals computed using PRISM.
 NBasis=   170 RedAO= T EigKep=  6.81D-05  NBF=   170
 NBsUse=   170 1.00D-06 EigRej= -1.00D+00 NBFU=   170
 Precomputing XC quadrature grid using
 IXCGrd= 4 IRadAn=           5 IRanWt=          -1 IRanGd=           0 AccXCQ= 0.00D+00.
 Generated NRdTot=       0 NPtTot=           0 NUsed=           0 NTot=          32
 NSgBfM=   182   182   182   182   182 MxSgAt=     6 MxSgA2=     6.
 Leave Link  302 at Thu Jun 13 10:38:35 2024, MaxMem=  1073741824 cpu:         2.3
 (Enter /apps/z_install_tree/linux-rocky8-ivybridge/gcc-12.2.0/gaussian-09-D.01-wczn3gur5lpur3omlkzwa2l5ecyxp5ef/g09/l303.exe)
 DipDrv:  MaxL=1.
 Leave Link  303 at Thu Jun 13 10:38:35 2024, MaxMem=  1073741824 cpu:         0.4
 (Enter /apps/z_install_tree/linux-rocky8-ivybridge/gcc-12.2.0/gaussian-09-D.01-wczn3gur5lpur3omlkzwa2l5ecyxp5ef/g09/l401.exe)
 Initial guess from the checkpoint file:  "Trifluorochloroethene.chk"
 B after Tr=     0.105721    0.045078   -0.218876
         Rot=    0.999999   -0.000753    0.000635   -0.000233 Ang=  -0.12 deg.
 Guess basis will be translated and rotated to current coordinates.
 JPrj=2 DoOrth=T DoCkMO=T.
 Generating alternative initial guess.
 ExpMin= 4.38D-02 ExpMax= 1.06D+05 ExpMxC= 3.62D+03 IAcc=2 IRadAn=         4 AccDes= 0.00D+00
 Harris functional with IExCor=  402 and IRadAn=       4 diagonalized for initial guess.
 HarFok:  IExCor=  402 AccDes= 0.00D+00 IRadAn=         4 IDoV= 1 UseB2=F ITyADJ=14
 ICtDFT=  3500011 ScaDFX=  1.000000  1.000000  1.000000  1.000000
 FoFCou: FMM=F IPFlag=           0 FMFlag=      100000 FMFlg1=           0
         NFxFlg=           0 DoJE=T BraDBF=F KetDBF=T FulRan=T
         wScrn=  0.000000 ICntrl=     500 IOpCl=  0 I1Cent=   200000004 NGrid=           0
         NMat0=    1 NMatS0=      1 NMatT0=    0 NMatD0=    1 NMtDS0=    0 NMtDT0=    0
 Symmetry not used in FoFCou.
 Harris En= -835.884679443066    
 Leave Link  401 at Thu Jun 13 10:38:35 2024, MaxMem=  1073741824 cpu:         4.0
 (Enter /apps/z_install_tree/linux-rocky8-ivybridge/gcc-12.2.0/gaussian-09-D.01-wczn3gur5lpur3omlkzwa2l5ecyxp5ef/g09/l502.exe)
 Closed shell SCF:
 Using DIIS extrapolation, IDIIS=  1040.
 Two-electron integral symmetry not used.
 Keep R1 ints in memory in canonical form, NReq=108819870.
 IVT=      115338 IEndB=      115338 NGot=  1073741824 MDV=   967986107
 LenX=   967986107 LenY=   967952542
 Requested convergence on RMS density matrix=1.00D-08 within  96 cycles.
 Requested convergence on MAX density matrix=1.00D-06.
 Requested convergence on             energy=1.00D-06.
 No special actions if energy rises.
 FoFCou: FMM=F IPFlag=           0 FMFlag=           0 FMFlg1=           0
         NFxFlg=           0 DoJE=F BraDBF=F KetDBF=F FulRan=T
         wScrn=  0.000000 ICntrl=     600 IOpCl=  0 I1Cent=           0 NGrid=           0
         NMat0=    1 NMatS0=  14535 NMatT0=    0 NMatD0=    1 NMtDS0=    0 NMtDT0=    0
 Symmetry not used in FoFCou.

 Cycle   1  Pass 1  IDiag  1:
 E= -835.943244469704    
 DIIS: error= 3.05D-03 at cycle   1 NSaved=   1.
 NSaved= 1 IEnMin= 1 EnMin= -835.943244469704     IErMin= 1 ErrMin= 3.05D-03
 ErrMax= 3.05D-03  0.00D+00 EMaxC= 1.00D-01 BMatC= 3.57D-03 BMatP= 3.57D-03
 IDIUse=3 WtCom= 9.69D-01 WtEn= 3.05D-02
 Coeff-Com:  0.100D+01
 Coeff-En:   0.100D+01
 Coeff:      0.100D+01
 Gap=     0.498 Goal=   None    Shift=    0.000
 GapD=    0.498 DampG=2.000 DampE=1.000 DampFc=2.0000 IDamp=-1.
 RMSDP=8.09D-04 MaxDP=1.91D-02              OVMax= 2.96D-02

 Cycle   2  Pass 1  IDiag  1:
 E= -835.946889963269     Delta-E=       -0.003645493565 Rises=F Damp=F
 DIIS: error= 2.31D-03 at cycle   2 NSaved=   2.
 NSaved= 2 IEnMin= 2 EnMin= -835.946889963269     IErMin= 2 ErrMin= 2.31D-03
 ErrMax= 2.31D-03  0.00D+00 EMaxC= 1.00D-01 BMatC= 1.16D-03 BMatP= 3.57D-03
 IDIUse=3 WtCom= 9.77D-01 WtEn= 2.31D-02
 Coeff-Com:  0.277D+00 0.723D+00
 Coeff-En:   0.000D+00 0.100D+01
 Coeff:      0.270D+00 0.730D+00
 Gap=     0.201 Goal=   None    Shift=    0.000
 RMSDP=2.08D-04 MaxDP=5.96D-03 DE=-3.65D-03 OVMax= 1.41D-02

 Cycle   3  Pass 1  IDiag  1:
 E= -835.946352559028     Delta-E=        0.000537404241 Rises=F Damp=F
 DIIS: error= 3.00D-03 at cycle   3 NSaved=   3.
 NSaved= 3 IEnMin= 2 EnMin= -835.946889963269     IErMin= 2 ErrMin= 2.31D-03
 ErrMax= 3.00D-03  0.00D+00 EMaxC= 1.00D-01 BMatC= 1.88D-03 BMatP= 1.16D-03
 IDIUse=3 WtCom= 1.54D-01 WtEn= 8.46D-01
 Coeff-Com:  0.962D-02 0.558D+00 0.433D+00
 Coeff-En:   0.000D+00 0.605D+00 0.395D+00
 Coeff:      0.149D-02 0.597D+00 0.401D+00
 Gap=     0.199 Goal=   None    Shift=    0.000
 RMSDP=1.19D-04 MaxDP=4.69D-03 DE= 5.37D-04 OVMax= 9.86D-03

 Cycle   4  Pass 1  IDiag  1:
 E= -835.947596320262     Delta-E=       -0.001243761234 Rises=F Damp=F
 DIIS: error= 3.88D-04 at cycle   4 NSaved=   4.
 NSaved= 4 IEnMin= 4 EnMin= -835.947596320262     IErMin= 4 ErrMin= 3.88D-04
 ErrMax= 3.88D-04  0.00D+00 EMaxC= 1.00D-01 BMatC= 2.29D-05 BMatP= 1.16D-03
 IDIUse=3 WtCom= 9.96D-01 WtEn= 3.88D-03
 Coeff-Com: -0.140D-01 0.226D+00 0.130D+00 0.658D+00
 Coeff-En:   0.000D+00 0.000D+00 0.000D+00 0.100D+01
 Coeff:     -0.140D-01 0.225D+00 0.130D+00 0.659D+00
 Gap=     0.199 Goal=   None    Shift=    0.000
 RMSDP=2.08D-05 MaxDP=5.20D-04 DE=-1.24D-03 OVMax= 1.70D-03

 Cycle   5  Pass 1  IDiag  1:
 E= -835.947606311318     Delta-E=       -0.000009991056 Rises=F Damp=F
 DIIS: error= 1.29D-04 at cycle   5 NSaved=   5.
 NSaved= 5 IEnMin= 5 EnMin= -835.947606311318     IErMin= 5 ErrMin= 1.29D-04
 ErrMax= 1.29D-04  0.00D+00 EMaxC= 1.00D-01 BMatC= 2.84D-06 BMatP= 2.29D-05
 IDIUse=3 WtCom= 9.99D-01 WtEn= 1.29D-03
 Coeff-Com: -0.614D-02 0.855D-01 0.372D-01 0.369D+00 0.515D+00
 Coeff-En:   0.000D+00 0.000D+00 0.000D+00 0.858D-01 0.914D+00
 Coeff:     -0.613D-02 0.854D-01 0.372D-01 0.368D+00 0.515D+00
 Gap=     0.199 Goal=   None    Shift=    0.000
 RMSDP=9.94D-06 MaxDP=3.32D-04 DE=-9.99D-06 OVMax= 1.19D-03

 Cycle   6  Pass 1  IDiag  1:
 E= -835.947608963031     Delta-E=       -0.000002651714 Rises=F Damp=F
 DIIS: error= 4.51D-05 at cycle   6 NSaved=   6.
 NSaved= 6 IEnMin= 6 EnMin= -835.947608963031     IErMin= 6 ErrMin= 4.51D-05
 ErrMax= 4.51D-05  0.00D+00 EMaxC= 1.00D-01 BMatC= 3.73D-07 BMatP= 2.84D-06
 IDIUse=1 WtCom= 1.00D+00 WtEn= 0.00D+00
 Coeff-Com: -0.150D-02 0.128D-01-0.252D-04 0.938D-01 0.296D+00 0.599D+00
 Coeff:     -0.150D-02 0.128D-01-0.252D-04 0.938D-01 0.296D+00 0.599D+00
 Gap=     0.199 Goal=   None    Shift=    0.000
 RMSDP=2.99D-06 MaxDP=9.93D-05 DE=-2.65D-06 OVMax= 2.34D-04

 Cycle   7  Pass 1  IDiag  1:
 E= -835.947609254698     Delta-E=       -0.000000291667 Rises=F Damp=F
 DIIS: error= 1.32D-05 at cycle   7 NSaved=   7.
 NSaved= 7 IEnMin= 7 EnMin= -835.947609254698     IErMin= 7 ErrMin= 1.32D-05
 ErrMax= 1.32D-05  0.00D+00 EMaxC= 1.00D-01 BMatC= 3.37D-08 BMatP= 3.73D-07
 IDIUse=1 WtCom= 1.00D+00 WtEn= 0.00D+00
 Coeff-Com: -0.306D-03 0.217D-03-0.222D-02 0.165D-01 0.120D+00 0.314D+00
 Coeff-Com:  0.551D+00
 Coeff:     -0.306D-03 0.217D-03-0.222D-02 0.165D-01 0.120D+00 0.314D+00
 Coeff:      0.551D+00
 Gap=     0.199 Goal=   None    Shift=    0.000
 RMSDP=1.26D-06 MaxDP=3.52D-05 DE=-2.92D-07 OVMax= 5.39D-05

 Cycle   8  Pass 1  IDiag  1:
 E= -835.947609285722     Delta-E=       -0.000000031024 Rises=F Damp=F
 DIIS: error= 4.28D-06 at cycle   8 NSaved=   8.
 NSaved= 8 IEnMin= 8 EnMin= -835.947609285722     IErMin= 8 ErrMin= 4.28D-06
 ErrMax= 4.28D-06  0.00D+00 EMaxC= 1.00D-01 BMatC= 3.86D-09 BMatP= 3.37D-08
 IDIUse=1 WtCom= 1.00D+00 WtEn= 0.00D+00
 Coeff-Com:  0.121D-04-0.163D-02-0.129D-02-0.233D-02 0.360D-01 0.104D+00
 Coeff-Com:  0.297D+00 0.568D+00
 Coeff:      0.121D-04-0.163D-02-0.129D-02-0.233D-02 0.360D-01 0.104D+00
 Coeff:      0.297D+00 0.568D+00
 Gap=     0.199 Goal=   None    Shift=    0.000
 RMSDP=3.28D-07 MaxDP=9.58D-06 DE=-3.10D-08 OVMax= 1.79D-05

 Cycle   9  Pass 1  IDiag  1:
 E= -835.947609288129     Delta-E=       -0.000000002407 Rises=F Damp=F
 DIIS: error= 1.74D-06 at cycle   9 NSaved=   9.
 NSaved= 9 IEnMin= 9 EnMin= -835.947609288129     IErMin= 9 ErrMin= 1.74D-06
 ErrMax= 1.74D-06  0.00D+00 EMaxC= 1.00D-01 BMatC= 7.45D-10 BMatP= 3.86D-09
 IDIUse=1 WtCom= 1.00D+00 WtEn= 0.00D+00
 Coeff-Com:  0.305D-04-0.108D-02-0.616D-03-0.305D-02 0.131D-01 0.404D-01
 Coeff-Com:  0.147D+00 0.372D+00 0.432D+00
 Coeff:      0.305D-04-0.108D-02-0.616D-03-0.305D-02 0.131D-01 0.404D-01
 Coeff:      0.147D+00 0.372D+00 0.432D+00
 Gap=     0.199 Goal=   None    Shift=    0.000
 RMSDP=1.04D-07 MaxDP=1.96D-06 DE=-2.41D-09 OVMax= 6.68D-06

 Cycle  10  Pass 1  IDiag  1:
 E= -835.947609288616     Delta-E=       -0.000000000487 Rises=F Damp=F
 DIIS: error= 2.82D-07 at cycle  10 NSaved=  10.
 NSaved=10 IEnMin=10 EnMin= -835.947609288616     IErMin=10 ErrMin= 2.82D-07
 ErrMax= 2.82D-07  0.00D+00 EMaxC= 1.00D-01 BMatC= 3.20D-11 BMatP= 7.45D-10
 IDIUse=1 WtCom= 1.00D+00 WtEn= 0.00D+00
 Coeff-Com:  0.126D-04-0.203D-03-0.298D-04-0.108D-02-0.848D-03-0.575D-03
 Coeff-Com:  0.144D-01 0.731D-01 0.200D+00 0.715D+00
 Coeff:      0.126D-04-0.203D-03-0.298D-04-0.108D-02-0.848D-03-0.575D-03
 Coeff:      0.144D-01 0.731D-01 0.200D+00 0.715D+00
 Gap=     0.199 Goal=   None    Shift=    0.000
 RMSDP=3.04D-08 MaxDP=8.80D-07 DE=-4.87D-10 OVMax= 1.12D-06

 Cycle  11  Pass 1  IDiag  1:
 E= -835.947609288632     Delta-E=       -0.000000000015 Rises=F Damp=F
 DIIS: error= 1.23D-07 at cycle  11 NSaved=  11.
 NSaved=11 IEnMin=11 EnMin= -835.947609288632     IErMin=11 ErrMin= 1.23D-07
 ErrMax= 1.23D-07  0.00D+00 EMaxC= 1.00D-01 BMatC= 3.51D-12 BMatP= 3.20D-11
 IDIUse=1 WtCom= 1.00D+00 WtEn= 0.00D+00
 Coeff-Com:  0.405D-05-0.345D-04 0.191D-04-0.325D-03-0.131D-02-0.236D-02
 Coeff-Com: -0.206D-02 0.989D-02 0.691D-01 0.344D+00 0.583D+00
 Coeff:      0.405D-05-0.345D-04 0.191D-04-0.325D-03-0.131D-02-0.236D-02
 Coeff:     -0.206D-02 0.989D-02 0.691D-01 0.344D+00 0.583D+00
 Gap=     0.199 Goal=   None    Shift=    0.000
 RMSDP=8.14D-09 MaxDP=2.74D-07 DE=-1.55D-11 OVMax= 4.52D-07

 SCF Done:  E(RB3LYP) =  -835.947609289     A.U. after   11 cycles
            NFock= 11  Conv=0.81D-08     -V/T= 2.0035
 KE= 8.330307655907D+02 PE=-2.535915313603D+03 EE= 5.913910316791D+02
 Leave Link  502 at Thu Jun 13 10:38:40 2024, MaxMem=  1073741824 cpu:        47.1
 (Enter /apps/z_install_tree/linux-rocky8-ivybridge/gcc-12.2.0/gaussian-09-D.01-wczn3gur5lpur3omlkzwa2l5ecyxp5ef/g09/l508.exe)
 QCSCF skips out because SCF is already converged.
 Leave Link  508 at Thu Jun 13 10:38:40 2024, MaxMem=  1073741824 cpu:         0.0
 (Enter /apps/z_install_tree/linux-rocky8-ivybridge/gcc-12.2.0/gaussian-09-D.01-wczn3gur5lpur3omlkzwa2l5ecyxp5ef/g09/l701.exe)
 Compute integral first derivatives.
 ... and contract with generalized density number  0.
 R6Disp: Adding Grimme-D3 dispersion energy 1st derivatives to the gradient.
 Leave Link  701 at Thu Jun 13 10:38:40 2024, MaxMem=  1073741824 cpu:         1.9
 (Enter /apps/z_install_tree/linux-rocky8-ivybridge/gcc-12.2.0/gaussian-09-D.01-wczn3gur5lpur3omlkzwa2l5ecyxp5ef/g09/l702.exe)
 L702 exits ... SP integral derivatives will be done elsewhere.
 Leave Link  702 at Thu Jun 13 10:38:40 2024, MaxMem=  1073741824 cpu:         0.3
 (Enter /apps/z_install_tree/linux-rocky8-ivybridge/gcc-12.2.0/gaussian-09-D.01-wczn3gur5lpur3omlkzwa2l5ecyxp5ef/g09/l703.exe)
 Compute integral first derivatives, UseDBF=F ICtDFT=           0.
 Integral derivatives from FoFJK, PRISM(SPDF).
 Calling FoFJK, ICntrl=      2127 FMM=F ISym2X=0 I1Cent= 0 IOpClX= 0 NMat=1 NMatS=1 NMatT=0.
 FoFJK:  IHMeth= 1 ICntrl=    2127 DoSepK=F KAlg= 0 I1Cent=   0 FoldK=F
 IRaf=         0 NMat=   1 IRICut=       1 DoRegI=T DoRafI=F ISym2E= 0.
 FoFCou: FMM=F IPFlag=           0 FMFlag=      100000 FMFlg1=         800
         NFxFlg=           0 DoJE=F BraDBF=F KetDBF=F FulRan=T
         wScrn=  0.000000 ICntrl=    2127 IOpCl=  0 I1Cent=           0 NGrid=           0
         NMat0=    1 NMatS0=      1 NMatT0=    0 NMatD0=    1 NMtDS0=    0 NMtDT0=    0
 Symmetry not used in FoFCou.
 Leave Link  703 at Thu Jun 13 10:38:41 2024, MaxMem=  1073741824 cpu:        13.6
 (Enter /apps/z_install_tree/linux-rocky8-ivybridge/gcc-12.2.0/gaussian-09-D.01-wczn3gur5lpur3omlkzwa2l5ecyxp5ef/g09/l716.exe)
 Dipole        = 5.86347116D-01 6.01571502D-01-2.56958183D-01
 -------------------------------------------------------------------
 Center     Atomic                   Forces (Hartrees/Bohr)
 Number     Number              X              Y              Z
 -------------------------------------------------------------------
      1        6          -0.060999892   -0.050344282    0.060106819
      2        6          -0.001559784   -0.002114488   -0.000728651
      3        9           0.009499730   -0.029630957   -0.111430480
      4        9           0.059270452    0.086534660    0.044076390
      5        9          -0.002762655   -0.001344679    0.005275568
      6       17          -0.003447851   -0.003100255    0.002700353
 -------------------------------------------------------------------
 Cartesian Forces:  Max     0.111430480 RMS     0.044889255
 Leave Link  716 at Thu Jun 13 10:38:41 2024, MaxMem=  1073741824 cpu:         0.4
 (Enter /apps/z_install_tree/linux-rocky8-ivybridge/gcc-12.2.0/gaussian-09-D.01-wczn3gur5lpur3omlkzwa2l5ecyxp5ef/g09/l103.exe)

 GradGradGradGradGradGradGradGradGradGradGradGradGradGradGradGradGradGrad
 Berny optimization.
 Using GEDIIS/GDIIS optimizer.
 FormGI is forming the generalized inverse of G from B-inverse, IUseBI=4.
 Internal  Forces:  Max     0.115560583 RMS     0.042238842
 Search for a local minimum.
 Step number   2 out of a maximum of   25
 All quantities printed in internal units (Hartrees-Bohrs-Radians)
 RMS Force = .42239D-01 SwitMx=.10000D-02 MixMth= 1
 Mixed Optimization -- RFO/linear search
 Update second derivatives using D2CorX and points    1    2
 DE= -5.00D-02 DEPred=-4.26D-02 R= 1.17D+00
 TightC=F SS=  1.41D+00  RLast= 3.00D-01 DXNew= 5.0454D-01 9.0000D-01
 Trust test= 1.17D+00 RLast= 3.00D-01 DXMaxT set to 5.05D-01
 The second derivative matrix:
                          R1        R2        R3        R4        R5
           R1           0.70999
           R2          -0.00197   0.08857
           R3          -0.00632  -0.07829   0.08913
           R4           0.05656  -0.00020  -0.00221   0.61977
           R5           0.03802   0.00027  -0.00109   0.01747   0.35211
           A1           0.01244   0.00491   0.00439   0.00567   0.00379
           A2           0.00392   0.00622   0.00598   0.00174   0.00114
           A3          -0.01636  -0.01113  -0.01037  -0.00742  -0.00493
           A4           0.01586   0.00019  -0.00037   0.00729   0.00490
           A5           0.02970  -0.00151  -0.00254   0.01366   0.00919
           A6          -0.04556   0.00132   0.00292  -0.02095  -0.01408
           D1           0.00000   0.00000   0.00000   0.00000   0.00000
           D2           0.00000   0.00000   0.00000   0.00000   0.00000
           D3          -0.00002   0.00000   0.00000  -0.00001  -0.00001
           D4          -0.00002   0.00000   0.00000  -0.00001  -0.00001
                          A1        A2        A3        A4        A5
           A1           0.25093
           A2          -0.00001   0.24963
           A3          -0.00092   0.00038   0.25055
           A4           0.00158   0.00047  -0.00205   0.25204
           A5           0.00307   0.00103  -0.00410   0.00383   0.25716
           A6          -0.00465  -0.00150   0.00614  -0.00588  -0.01099
           D1           0.00000   0.00000   0.00000   0.00000   0.00000
           D2           0.00000   0.00000   0.00000   0.00000   0.00000
           D3           0.00000   0.00000   0.00000   0.00000   0.00000
           D4           0.00000   0.00000   0.00000   0.00000   0.00000
                          A6        D1        D2        D3        D4
           A6           0.26687
           D1           0.00000   0.02969
           D2           0.00000   0.00000   0.02969
           D3           0.00001   0.00000   0.00000   0.02969
           D4           0.00001   0.00000   0.00000   0.00000   0.02969
 ITU=  1  0
 Use linear search instead of GDIIS.
     Eigenvalues ---    0.00897   0.02969   0.02969   0.02969   0.16710
     Eigenvalues ---    0.24920   0.25000   0.25000   0.26810   0.34922
     Eigenvalues ---    0.59254   0.75159
 RFO step:  Lambda=-1.58677739D-01 EMin= 8.97009570D-03
 Skip linear search -- no minimum in search direction.
 Maximum step size (   0.505) exceeded in Quadratic search.
    -- Step size scaled by   0.519
 Iteration  1 RMS(Cart)=  0.07621411 RMS(Int)=  0.05687400
 Iteration  2 RMS(Cart)=  0.05375437 RMS(Int)=  0.00004449
 Iteration  3 RMS(Cart)=  0.00006087 RMS(Int)=  0.00000000
 Iteration  4 RMS(Cart)=  0.00000000 RMS(Int)=  0.00000000
 ITry= 1 IFail=0 DXMaxC= 3.21D-01 DCOld= 1.00D+10 DXMaxT= 5.05D-01 DXLimC= 3.00D+00 Rises=F
 Variable       Old X    -DE/DX   Delta X   Delta X   Delta X     New X
                                 (Linear)    (Quad)   (Total)
    R1        2.50239  -0.01248   0.00000  -0.01046  -0.01046   2.49193
    R2        3.04959  -0.11556   0.00000  -0.35701  -0.35701   2.69258
    R3        3.06167  -0.11359   0.00000  -0.35342  -0.35342   2.70825
    R4        2.50695  -0.00497   0.00000  -0.00357  -0.00357   2.50338
    R5        3.23451  -0.00365   0.00000  -0.00336  -0.00336   3.23116
    A1        2.15069   0.00473   0.00000   0.01459   0.01459   2.16527
    A2        2.11298   0.00743   0.00000   0.02029   0.02029   2.13327
    A3        2.01951  -0.01216   0.00000  -0.03487  -0.03487   1.98464
    A4        2.10525  -0.00168   0.00000  -0.00177  -0.00177   2.10348
    A5        2.18660  -0.00552   0.00000  -0.00959  -0.00959   2.17701
    A6        1.99134   0.00720   0.00000   0.01136   0.01136   2.00270
    D1        3.14154   0.00000   0.00000   0.00000   0.00000   3.14154
    D2       -0.00011   0.00000   0.00000   0.00000   0.00000  -0.00011
    D3        0.00008   0.00000   0.00000  -0.00002  -0.00002   0.00006
    D4       -3.14158   0.00000   0.00000  -0.00002  -0.00002   3.14159
         Item               Value     Threshold  Converged?
 Maximum Force            0.115561     0.000450     NO 
 RMS     Force            0.042239     0.000300     NO 
 Maximum Displacement     0.321243     0.001800     NO 
 RMS     Displacement     0.129151     0.001200     NO 
 Predicted change in Energy=-8.117455D-02
 Lowest energy point so far.  Saving SCF results.
 GradGradGradGradGradGradGradGradGradGradGradGradGradGradGradGradGradGrad

 Leave Link  103 at Thu Jun 13 10:38:41 2024, MaxMem=  1073741824 cpu:         0.6
 (Enter /apps/z_install_tree/linux-rocky8-ivybridge/gcc-12.2.0/gaussian-09-D.01-wczn3gur5lpur3omlkzwa2l5ecyxp5ef/g09/l202.exe)
                          Input orientation:                          
 ---------------------------------------------------------------------
 Center     Atomic      Atomic             Coordinates (Angstroms)
 Number     Number       Type             X           Y           Z
 ---------------------------------------------------------------------
      1          6           0       49.814762   35.687174   32.616807
      2          6           0       50.622683   36.350981   31.813360
      3          9           0       49.640062   35.987124   33.998730
      4          9           0       49.023877   34.581707   32.162554
      5          9           0       50.731117   36.011245   30.537530
      6         17           0       51.593500   37.676769   32.286019
 ---------------------------------------------------------------------
                    Distance matrix (angstroms):
                    1          2          3          4          5
     1  C    0.000000
     2  C    1.318675   0.000000
     3  F    1.424851   2.423587   0.000000
     4  F    1.433144   2.410072   2.392995   0.000000
     5  F    2.295238   1.324734   3.629171   2.756619   0.000000
     6  Cl   2.689204   1.709855   3.099063   4.024626   2.564155
                    6
     6  Cl   0.000000
 Symmetry turned off by external request.
 Stoichiometry    C2ClF3
 Framework group  C1[X(C2ClF3)]
 Deg. of freedom    12
 Full point group                 C1      NOp   1
 Rotational constants (GHZ):      4.2309345      2.1763278      1.4371037
 Leave Link  202 at Thu Jun 13 10:38:41 2024, MaxMem=  1073741824 cpu:         0.1
 (Enter /apps/z_install_tree/linux-rocky8-ivybridge/gcc-12.2.0/gaussian-09-D.01-wczn3gur5lpur3omlkzwa2l5ecyxp5ef/g09/l301.exe)
 Basis read from rwf:  (5D, 7F)
 No pseudopotential information found on rwf file.
   170 basis functions,   269 primitive gaussians,   182 cartesian basis functions
    28 alpha electrons       28 beta electrons
       nuclear repulsion energy       286.8378362635 Hartrees.
 IExCor=  402 DFT=T Ex+Corr=B3LYP ExCW=0 ScaHFX=  0.200000
 ScaDFX=  0.800000  0.720000  1.000000  0.810000 ScalE2=  1.000000  1.000000
 IRadAn=      5 IRanWt=     -1 IRanGd=            0 ICorTp=0 IEmpDi=131
 NAtoms=    6 NActive=    6 NUniq=    6 SFac= 1.00D+00 NAtFMM=   60 NAOKFM=F Big=F
 Integral buffers will be    131072 words long.
 Raffenetti 2 integral format.
 Two-electron integral symmetry is turned off.
 R6Disp:  Grimme-D3 Dispersion energy=       -0.0027183295 Hartrees.
 Nuclear repulsion after empirical dispersion term =      286.8351179340 Hartrees.
 No density basis found on file   724.
 Leave Link  301 at Thu Jun 13 10:38:41 2024, MaxMem=  1073741824 cpu:         1.0
 (Enter /apps/z_install_tree/linux-rocky8-ivybridge/gcc-12.2.0/gaussian-09-D.01-wczn3gur5lpur3omlkzwa2l5ecyxp5ef/g09/l302.exe)
 NPDir=0 NMtPBC=     1 NCelOv=     1 NCel=       1 NClECP=     1 NCelD=      1
         NCelK=      1 NCelE2=     1 NClLst=     1 CellRange=     0.0.
 One-electron integrals computed using PRISM.
 NBasis=   170 RedAO= T EigKep=  6.80D-05  NBF=   170
 NBsUse=   170 1.00D-06 EigRej= -1.00D+00 NBFU=   170
 Precomputing XC quadrature grid using
 IXCGrd= 4 IRadAn=           5 IRanWt=          -1 IRanGd=           0 AccXCQ= 0.00D+00.
 Generated NRdTot=       0 NPtTot=           0 NUsed=           0 NTot=          32
 NSgBfM=   182   182   182   182   182 MxSgAt=     6 MxSgA2=     6.
 Leave Link  302 at Thu Jun 13 10:38:42 2024, MaxMem=  1073741824 cpu:         2.4
 (Enter /apps/z_install_tree/linux-rocky8-ivybridge/gcc-12.2.0/gaussian-09-D.01-wczn3gur5lpur3omlkzwa2l5ecyxp5ef/g09/l303.exe)
 DipDrv:  MaxL=1.
 Leave Link  303 at Thu Jun 13 10:38:42 2024, MaxMem=  1073741824 cpu:         0.4
 (Enter /apps/z_install_tree/linux-rocky8-ivybridge/gcc-12.2.0/gaussian-09-D.01-wczn3gur5lpur3omlkzwa2l5ecyxp5ef/g09/l401.exe)
 Initial guess from the checkpoint file:  "Trifluorochloroethene.chk"
 B after Tr=     0.134890    0.057864   -0.277859
         Rot=    0.999999   -0.000949    0.000800   -0.000294 Ang=  -0.15 deg.
 Guess basis will be translated and rotated to current coordinates.
 JPrj=2 DoOrth=T DoCkMO=T.
 Generating alternative initial guess.
 ExpMin= 4.38D-02 ExpMax= 1.06D+05 ExpMxC= 3.62D+03 IAcc=2 IRadAn=         4 AccDes= 0.00D+00
 Harris functional with IExCor=  402 and IRadAn=       4 diagonalized for initial guess.
 HarFok:  IExCor=  402 AccDes= 0.00D+00 IRadAn=         4 IDoV= 1 UseB2=F ITyADJ=14
 ICtDFT=  3500011 ScaDFX=  1.000000  1.000000  1.000000  1.000000
 FoFCou: FMM=F IPFlag=           0 FMFlag=      100000 FMFlg1=           0
         NFxFlg=           0 DoJE=T BraDBF=F KetDBF=T FulRan=T
         wScrn=  0.000000 ICntrl=     500 IOpCl=  0 I1Cent=   200000004 NGrid=           0
         NMat0=    1 NMatS0=      1 NMatT0=    0 NMatD0=    1 NMtDS0=    0 NMtDT0=    0
 Symmetry not used in FoFCou.
 Harris En= -835.934257849152    
 Leave Link  401 at Thu Jun 13 10:38:42 2024, MaxMem=  1073741824 cpu:         3.8
 (Enter /apps/z_install_tree/linux-rocky8-ivybridge/gcc-12.2.0/gaussian-09-D.01-wczn3gur5lpur3omlkzwa2l5ecyxp5ef/g09/l502.exe)
 Closed shell SCF:
 Using DIIS extrapolation, IDIIS=  1040.
 Two-electron integral symmetry not used.
 Keep R1 ints in memory in canonical form, NReq=108819870.
 IVT=      115338 IEndB=      115338 NGot=  1073741824 MDV=   967986107
 LenX=   967986107 LenY=   967952542
 Requested convergence on RMS density matrix=1.00D-08 within  96 cycles.
 Requested convergence on MAX density matrix=1.00D-06.
 Requested convergence on             energy=1.00D-06.
 No special actions if energy rises.
 FoFCou: FMM=F IPFlag=           0 FMFlag=           0 FMFlg1=           0
         NFxFlg=           0 DoJE=F BraDBF=F KetDBF=F FulRan=T
         wScrn=  0.000000 ICntrl=     600 IOpCl=  0 I1Cent=           0 NGrid=           0
         NMat0=    1 NMatS0=  14535 NMatT0=    0 NMatD0=    1 NMtDS0=    0 NMtDT0=    0
 Symmetry not used in FoFCou.

 Cycle   1  Pass 1  IDiag  1:
 E= -835.999459055258    
 DIIS: error= 6.97D-03 at cycle   1 NSaved=   1.
 NSaved= 1 IEnMin= 1 EnMin= -835.999459055258     IErMin= 1 ErrMin= 6.97D-03
 ErrMax= 6.97D-03  0.00D+00 EMaxC= 1.00D-01 BMatC= 1.86D-02 BMatP= 1.86D-02
 IDIUse=3 WtCom= 9.30D-01 WtEn= 6.97D-02
 Coeff-Com:  0.100D+01
 Coeff-En:   0.100D+01
 Coeff:      0.100D+01
 Gap=     0.480 Goal=   None    Shift=    0.000
 GapD=    0.480 DampG=2.000 DampE=1.000 DampFc=2.0000 IDamp=-1.
 RMSDP=1.54D-03 MaxDP=5.09D-02              OVMax= 3.99D-02

 Cycle   2  Pass 1  IDiag  1:
 E= -836.017811905420     Delta-E=       -0.018352850163 Rises=F Damp=F
 DIIS: error= 3.16D-03 at cycle   2 NSaved=   2.
 NSaved= 2 IEnMin= 2 EnMin= -836.017811905420     IErMin= 2 ErrMin= 3.16D-03
 ErrMax= 3.16D-03  0.00D+00 EMaxC= 1.00D-01 BMatC= 2.05D-03 BMatP= 1.86D-02
 IDIUse=3 WtCom= 9.68D-01 WtEn= 3.16D-02
 Coeff-Com:  0.138D+00 0.862D+00
 Coeff-En:   0.000D+00 0.100D+01
 Coeff:      0.133D+00 0.867D+00
 Gap=     0.255 Goal=   None    Shift=    0.000
 RMSDP=2.56D-04 MaxDP=9.35D-03 DE=-1.84D-02 OVMax= 1.39D-02

 Cycle   3  Pass 1  IDiag  1:
 E= -836.017306105940     Delta-E=        0.000505799481 Rises=F Damp=F
 DIIS: error= 4.03D-03 at cycle   3 NSaved=   3.
 NSaved= 3 IEnMin= 2 EnMin= -836.017811905420     IErMin= 2 ErrMin= 3.16D-03
 ErrMax= 4.03D-03  0.00D+00 EMaxC= 1.00D-01 BMatC= 2.81D-03 BMatP= 2.05D-03
 IDIUse=3 WtCom= 1.36D-01 WtEn= 8.64D-01
 Coeff-Com:  0.409D-02 0.540D+00 0.456D+00
 Coeff-En:   0.000D+00 0.580D+00 0.420D+00
 Coeff:      0.557D-03 0.575D+00 0.425D+00
 Gap=     0.255 Goal=   None    Shift=    0.000
 RMSDP=1.54D-04 MaxDP=3.72D-03 DE= 5.06D-04 OVMax= 9.07D-03

 Cycle   4  Pass 1  IDiag  1:
 E= -836.018946057886     Delta-E=       -0.001639951947 Rises=F Damp=F
 DIIS: error= 4.75D-04 at cycle   4 NSaved=   4.
 NSaved= 4 IEnMin= 4 EnMin= -836.018946057886     IErMin= 4 ErrMin= 4.75D-04
 ErrMax= 4.75D-04  0.00D+00 EMaxC= 1.00D-01 BMatC= 3.43D-05 BMatP= 2.05D-03
 IDIUse=3 WtCom= 9.95D-01 WtEn= 4.75D-03
 Coeff-Com: -0.951D-02 0.172D+00 0.157D+00 0.681D+00
 Coeff-En:   0.000D+00 0.000D+00 0.000D+00 0.100D+01
 Coeff:     -0.947D-02 0.171D+00 0.156D+00 0.682D+00
 Gap=     0.255 Goal=   None    Shift=    0.000
 RMSDP=3.38D-05 MaxDP=1.07D-03 DE=-1.64D-03 OVMax= 1.64D-03

 Cycle   5  Pass 1  IDiag  1:
 E= -836.018969106997     Delta-E=       -0.000023049110 Rises=F Damp=F
 DIIS: error= 1.27D-04 at cycle   5 NSaved=   5.
 NSaved= 5 IEnMin= 5 EnMin= -836.018969106997     IErMin= 5 ErrMin= 1.27D-04
 ErrMax= 1.27D-04  0.00D+00 EMaxC= 1.00D-01 BMatC= 3.57D-06 BMatP= 3.43D-05
 IDIUse=3 WtCom= 9.99D-01 WtEn= 1.27D-03
 Coeff-Com: -0.397D-02 0.469D-01 0.413D-01 0.295D+00 0.621D+00
 Coeff-En:   0.000D+00 0.000D+00 0.000D+00 0.000D+00 0.100D+01
 Coeff:     -0.396D-02 0.468D-01 0.412D-01 0.295D+00 0.621D+00
 Gap=     0.255 Goal=   None    Shift=    0.000
 RMSDP=1.31D-05 MaxDP=4.48D-04 DE=-2.30D-05 OVMax= 5.55D-04

 Cycle   6  Pass 1  IDiag  1:
 E= -836.018971953468     Delta-E=       -0.000002846471 Rises=F Damp=F
 DIIS: error= 6.19D-05 at cycle   6 NSaved=   6.
 NSaved= 6 IEnMin= 6 EnMin= -836.018971953468     IErMin= 6 ErrMin= 6.19D-05
 ErrMax= 6.19D-05  0.00D+00 EMaxC= 1.00D-01 BMatC= 6.75D-07 BMatP= 3.57D-06
 IDIUse=1 WtCom= 1.00D+00 WtEn= 0.00D+00
 Coeff-Com: -0.731D-03 0.663D-02 0.431D-02 0.791D-01 0.340D+00 0.570D+00
 Coeff:     -0.731D-03 0.663D-02 0.431D-02 0.791D-01 0.340D+00 0.570D+00
 Gap=     0.255 Goal=   None    Shift=    0.000
 RMSDP=4.36D-06 MaxDP=1.22D-04 DE=-2.85D-06 OVMax= 2.97D-04

 Cycle   7  Pass 1  IDiag  1:
 E= -836.018972494494     Delta-E=       -0.000000541026 Rises=F Damp=F
 DIIS: error= 1.87D-05 at cycle   7 NSaved=   7.
 NSaved= 7 IEnMin= 7 EnMin= -836.018972494494     IErMin= 7 ErrMin= 1.87D-05
 ErrMax= 1.87D-05  0.00D+00 EMaxC= 1.00D-01 BMatC= 5.75D-08 BMatP= 6.75D-07
 IDIUse=1 WtCom= 1.00D+00 WtEn= 0.00D+00
 Coeff-Com: -0.193D-03-0.762D-03-0.143D-02 0.121D-01 0.113D+00 0.295D+00
 Coeff-Com:  0.582D+00
 Coeff:     -0.193D-03-0.762D-03-0.143D-02 0.121D-01 0.113D+00 0.295D+00
 Coeff:      0.582D+00
 Gap=     0.255 Goal=   None    Shift=    0.000
 RMSDP=1.42D-06 MaxDP=5.83D-05 DE=-5.41D-07 OVMax= 1.59D-04

 Cycle   8  Pass 1  IDiag  1:
 E= -836.018972539002     Delta-E=       -0.000000044508 Rises=F Damp=F
 DIIS: error= 7.69D-06 at cycle   8 NSaved=   8.
 NSaved= 8 IEnMin= 8 EnMin= -836.018972539002     IErMin= 8 ErrMin= 7.69D-06
 ErrMax= 7.69D-06  0.00D+00 EMaxC= 1.00D-01 BMatC= 9.01D-09 BMatP= 5.75D-08
 IDIUse=1 WtCom= 1.00D+00 WtEn= 0.00D+00
 Coeff-Com:  0.168D-04-0.131D-02-0.154D-02 0.806D-04 0.389D-01 0.126D+00
 Coeff-Com:  0.333D+00 0.504D+00
 Coeff:      0.168D-04-0.131D-02-0.154D-02 0.806D-04 0.389D-01 0.126D+00
 Coeff:      0.333D+00 0.504D+00
 Gap=     0.255 Goal=   None    Shift=    0.000
 RMSDP=5.46D-07 MaxDP=1.59D-05 DE=-4.45D-08 OVMax= 5.68D-05

 Cycle   9  Pass 1  IDiag  1:
 E= -836.018972547488     Delta-E=       -0.000000008486 Rises=F Damp=F
 DIIS: error= 1.20D-06 at cycle   9 NSaved=   9.
 NSaved= 9 IEnMin= 9 EnMin= -836.018972547488     IErMin= 9 ErrMin= 1.20D-06
 ErrMax= 1.20D-06  0.00D+00 EMaxC= 1.00D-01 BMatC= 3.42D-10 BMatP= 9.01D-09
 IDIUse=1 WtCom= 1.00D+00 WtEn= 0.00D+00
 Coeff-Com:  0.116D-04-0.430D-03-0.498D-03-0.793D-03 0.716D-02 0.319D-01
 Coeff-Com:  0.921D-01 0.227D+00 0.643D+00
 Coeff:      0.116D-04-0.430D-03-0.498D-03-0.793D-03 0.716D-02 0.319D-01
 Coeff:      0.921D-01 0.227D+00 0.643D+00
 Gap=     0.255 Goal=   None    Shift=    0.000
 RMSDP=1.06D-07 MaxDP=4.03D-06 DE=-8.49D-09 OVMax= 6.40D-06

 Cycle  10  Pass 1  IDiag  1:
 E= -836.018972547718     Delta-E=       -0.000000000230 Rises=F Damp=F
 DIIS: error= 5.40D-07 at cycle  10 NSaved=  10.
 NSaved=10 IEnMin=10 EnMin= -836.018972547718     IErMin=10 ErrMin= 5.40D-07
 ErrMax= 5.40D-07  0.00D+00 EMaxC= 1.00D-01 BMatC= 6.21D-11 BMatP= 3.42D-10
 IDIUse=1 WtCom= 1.00D+00 WtEn= 0.00D+00
 Coeff-Com:  0.559D-05-0.104D-03-0.119D-03-0.499D-03-0.324D-03 0.421D-02
 Coeff-Com:  0.121D-01 0.743D-01 0.380D+00 0.530D+00
 Coeff:      0.559D-05-0.104D-03-0.119D-03-0.499D-03-0.324D-03 0.421D-02
 Coeff:      0.121D-01 0.743D-01 0.380D+00 0.530D+00
 Gap=     0.255 Goal=   None    Shift=    0.000
 RMSDP=3.63D-08 MaxDP=9.64D-07 DE=-2.30D-10 OVMax= 1.48D-06

 Cycle  11  Pass 1  IDiag  1:
 E= -836.018972547765     Delta-E=       -0.000000000047 Rises=F Damp=F
 DIIS: error= 7.77D-08 at cycle  11 NSaved=  11.
 NSaved=11 IEnMin=11 EnMin= -836.018972547765     IErMin=11 ErrMin= 7.77D-08
 ErrMax= 7.77D-08  0.00D+00 EMaxC= 1.00D-01 BMatC= 1.94D-12 BMatP= 6.21D-11
 IDIUse=1 WtCom= 1.00D+00 WtEn= 0.00D+00
 Coeff-Com:  0.144D-05-0.871D-05-0.619D-05-0.144D-03-0.765D-03-0.820D-03
 Coeff-Com: -0.280D-02 0.107D-01 0.110D+00 0.212D+00 0.672D+00
 Coeff:      0.144D-05-0.871D-05-0.619D-05-0.144D-03-0.765D-03-0.820D-03
 Coeff:     -0.280D-02 0.107D-01 0.110D+00 0.212D+00 0.672D+00
 Gap=     0.255 Goal=   None    Shift=    0.000
 RMSDP=8.03D-09 MaxDP=3.10D-07 DE=-4.71D-11 OVMax= 3.45D-07

 SCF Done:  E(RB3LYP) =  -836.018972548     A.U. after   11 cycles
            NFock= 11  Conv=0.80D-08     -V/T= 2.0031
 KE= 8.334712797582D+02 PE=-2.558906742386D+03 EE= 6.025813721463D+02
 Leave Link  502 at Thu Jun 13 10:38:46 2024, MaxMem=  1073741824 cpu:        44.1
 (Enter /apps/z_install_tree/linux-rocky8-ivybridge/gcc-12.2.0/gaussian-09-D.01-wczn3gur5lpur3omlkzwa2l5ecyxp5ef/g09/l508.exe)
 QCSCF skips out because SCF is already converged.
 Leave Link  508 at Thu Jun 13 10:38:46 2024, MaxMem=  1073741824 cpu:         0.0
 (Enter /apps/z_install_tree/linux-rocky8-ivybridge/gcc-12.2.0/gaussian-09-D.01-wczn3gur5lpur3omlkzwa2l5ecyxp5ef/g09/l701.exe)
 Compute integral first derivatives.
 ... and contract with generalized density number  0.
 R6Disp: Adding Grimme-D3 dispersion energy 1st derivatives to the gradient.
 Leave Link  701 at Thu Jun 13 10:38:46 2024, MaxMem=  1073741824 cpu:         1.8
 (Enter /apps/z_install_tree/linux-rocky8-ivybridge/gcc-12.2.0/gaussian-09-D.01-wczn3gur5lpur3omlkzwa2l5ecyxp5ef/g09/l702.exe)
 L702 exits ... SP integral derivatives will be done elsewhere.
 Leave Link  702 at Thu Jun 13 10:38:46 2024, MaxMem=  1073741824 cpu:         0.3
 (Enter /apps/z_install_tree/linux-rocky8-ivybridge/gcc-12.2.0/gaussian-09-D.01-wczn3gur5lpur3omlkzwa2l5ecyxp5ef/g09/l703.exe)
 Compute integral first derivatives, UseDBF=F ICtDFT=           0.
 Integral derivatives from FoFJK, PRISM(SPDF).
 Calling FoFJK, ICntrl=      2127 FMM=F ISym2X=0 I1Cent= 0 IOpClX= 0 NMat=1 NMatS=1 NMatT=0.
 FoFJK:  IHMeth= 1 ICntrl=    2127 DoSepK=F KAlg= 0 I1Cent=   0 FoldK=F
 IRaf=         0 NMat=   1 IRICut=       1 DoRegI=T DoRafI=F ISym2E= 0.
 FoFCou: FMM=F IPFlag=           0 FMFlag=      100000 FMFlg1=         800
         NFxFlg=           0 DoJE=F BraDBF=F KetDBF=F FulRan=T
         wScrn=  0.000000 ICntrl=    2127 IOpCl=  0 I1Cent=           0 NGrid=           0
         NMat0=    1 NMatS0=      1 NMatT0=    0 NMatD0=    1 NMtDS0=    0 NMtDT0=    0
 Symmetry not used in FoFCou.
 Leave Link  703 at Thu Jun 13 10:38:47 2024, MaxMem=  1073741824 cpu:        14.2
 (Enter /apps/z_install_tree/linux-rocky8-ivybridge/gcc-12.2.0/gaussian-09-D.01-wczn3gur5lpur3omlkzwa2l5ecyxp5ef/g09/l716.exe)
 Dipole        = 3.01549012D-01 3.42323566D-01-4.24496211D-02
 -------------------------------------------------------------------
 Center     Atomic                   Forces (Hartrees/Bohr)
 Number     Number              X              Y              Z
 -------------------------------------------------------------------
      1        6          -0.044585718   -0.037429382    0.042219957
      2        6           0.001248830    0.001624081    0.000373310
      3        9           0.005997709   -0.018521428   -0.069856398
      4        9           0.038459679    0.055808069    0.027666040
      5        9          -0.001002371   -0.002058518   -0.002357993
      6       17          -0.000118129    0.000577179    0.001955084
 -------------------------------------------------------------------
 Cartesian Forces:  Max     0.069856398 RMS     0.029635477
 Leave Link  716 at Thu Jun 13 10:38:47 2024, MaxMem=  1073741824 cpu:         0.5
 (Enter /apps/z_install_tree/linux-rocky8-ivybridge/gcc-12.2.0/gaussian-09-D.01-wczn3gur5lpur3omlkzwa2l5ecyxp5ef/g09/l103.exe)

 GradGradGradGradGradGradGradGradGradGradGradGradGradGradGradGradGradGrad
 Berny optimization.
 Using GEDIIS/GDIIS optimizer.
 FormGI is forming the generalized inverse of G from B-inverse, IUseBI=4.
 Internal  Forces:  Max     0.073041195 RMS     0.026718580
 Search for a local minimum.
 Step number   3 out of a maximum of   25
 All quantities printed in internal units (Hartrees-Bohrs-Radians)
 RMS Force = .26719D-01 SwitMx=.10000D-02 MixMth= 1
 Mixed Optimization -- RFO/linear search
 Update second derivatives using D2CorX and points    2    3
 DE= -7.14D-02 DEPred=-8.12D-02 R= 8.79D-01
 TightC=F SS=  1.41D+00  RLast= 5.05D-01 DXNew= 8.4853D-01 1.5136D+00
 Trust test= 8.79D-01 RLast= 5.05D-01 DXMaxT set to 8.49D-01
 The second derivative matrix:
                          R1        R2        R3        R4        R5
           R1           0.70537
           R2           0.00927   0.14560
           R3           0.00476  -0.02437   0.14007
           R4           0.05563   0.00793   0.00565   0.61999
           R5           0.03713   0.00487   0.00338   0.01746   0.35201
           A1           0.01219   0.00325   0.00282   0.00546   0.00367
           A2           0.00418   0.00354   0.00340   0.00166   0.00113
           A3          -0.01637  -0.00679  -0.00622  -0.00712  -0.00481
           A4           0.01488   0.00015  -0.00035   0.00692   0.00464
           A5           0.02825   0.00107   0.00003   0.01330   0.00888
           A6          -0.04312  -0.00122   0.00032  -0.02022  -0.01352
           D1           0.00000   0.00000   0.00000   0.00000   0.00000
           D2           0.00000   0.00000   0.00000   0.00000   0.00000
           D3          -0.00001   0.00000   0.00000  -0.00001   0.00000
           D4          -0.00001   0.00000   0.00000  -0.00001   0.00000
                          A1        A2        A3        A4        A5
           A1           0.25098
           A2           0.00006   0.24966
           A3          -0.00104   0.00027   0.25077
           A4           0.00159   0.00058  -0.00217   0.25190
           A5           0.00302   0.00113  -0.00415   0.00355   0.25671
           A6          -0.00460  -0.00172   0.00632  -0.00546  -0.01026
           D1           0.00000   0.00000   0.00000   0.00000   0.00000
           D2           0.00000   0.00000   0.00000   0.00000   0.00000
           D3           0.00000   0.00000   0.00000   0.00000   0.00000
           D4           0.00000   0.00000   0.00000   0.00000   0.00000
                          A6        D1        D2        D3        D4
           A6           0.26572
           D1           0.00000   0.02969
           D2           0.00000   0.00000   0.02969
           D3           0.00000   0.00000   0.00000   0.02969
           D4           0.00001   0.00000   0.00000   0.00000   0.02969
 ITU=  1  1  0
 Use linear search instead of GDIIS.
     Eigenvalues ---    0.02969   0.02969   0.02969   0.11701   0.16731
     Eigenvalues ---    0.24846   0.25000   0.25002   0.26757   0.34924
     Eigenvalues ---    0.59260   0.74655
 RFO step:  Lambda=-2.83230301D-04 EMin= 2.96890368D-02
 Quartic linear search produced a step of  0.62505.
 Iteration  1 RMS(Cart)=  0.07244501 RMS(Int)=  0.00969319
 Iteration  2 RMS(Cart)=  0.00899902 RMS(Int)=  0.00000791
 Iteration  3 RMS(Cart)=  0.00001034 RMS(Int)=  0.00000000
 Iteration  4 RMS(Cart)=  0.00000000 RMS(Int)=  0.00000000
 ITry= 1 IFail=0 DXMaxC= 1.93D-01 DCOld= 1.00D+10 DXMaxT= 8.49D-01 DXLimC= 3.00D+00 Rises=F
 Variable       Old X    -DE/DX   Delta X   Delta X   Delta X     New X
                                 (Linear)    (Quad)   (Total)
    R1        2.49193   0.00017  -0.00654   0.01197   0.00543   2.49736
    R2        2.69258  -0.07239  -0.22315   0.00476  -0.21839   2.47419
    R3        2.70825  -0.07304  -0.22090  -0.01129  -0.23219   2.47606
    R4        2.50338   0.00272  -0.00223   0.01158   0.00935   2.51274
    R5        3.23116   0.00092  -0.00210   0.01020   0.00810   3.23926
    A1        2.16527   0.00343   0.00912   0.00195   0.01107   2.17634
    A2        2.13327   0.00493   0.01268   0.00264   0.01532   2.14859
    A3        1.98464  -0.00836  -0.02180  -0.00459  -0.02639   1.95825
    A4        2.10348  -0.00112  -0.00111  -0.00341  -0.00452   2.09896
    A5        2.17701  -0.00238  -0.00600   0.00100  -0.00500   2.17200
[...]
     8                                   3       1          0                       6      5     5   4    3  3         1 1           
     2                                   0       9          4                       9      9     1   5    7  4         9 6           
     5                                   9       4          9                       1      2     5   6    9  0         2 9           
 
     X                                   X       X          X                       X      X     X   X    X  X         X X           
     X                                   X       X          X                                                                        
     X                                   X       X          X                                                                        
     X                                   X       X          X                                                                        
     X                                   X       X          X                                                                        
                                         X       X          X                                                                        
                                         X       X          X                                                                        
                                         X       X          X                                                                        
                                         X       X          X                                                                        
                                         X       X          X                                                                        
                                         X       X          X                                                                        
                                         X       X          X                                                                        
                                         X       X          X                                                                        
                                         X       X          X                                                                        
                                         X       X          X                                                                        
                                                 X          X                                                                        
                                                 X          X                                                                        
                                                 X          X                                                                        
                                                            X                                                                        
                                                            X                                                                        
 
 -------------------------------------------------------------------
 Center     Atomic                   Forces (Hartrees/Bohr)
 Number     Number              X              Y              Z
 -------------------------------------------------------------------
      1        6          -0.000001475   -0.000029561   -0.000074382
      2        6           0.000007817    0.000149249    0.000380640
      3        9           0.000011332   -0.000020150   -0.000096097
      4        9           0.000008516    0.000023985    0.000038022
      5        9           0.000016744   -0.000037516   -0.000151825
      6       17          -0.000042934   -0.000086007   -0.000096358
 -------------------------------------------------------------------
 Cartesian Forces:  Max     0.000380640 RMS     0.000112733
 Force constants in Cartesian coordinates: 
                1             2             3             4             5 
      1  0.463491D+00
      2  0.334183D+00  0.491950D+00
      3 -0.224526D+00 -0.466373D-01  0.711203D+00
      4 -0.241285D+00 -0.164015D+00  0.180604D+00  0.384929D+00
      5 -0.158907D+00 -0.183500D+00  0.142491D+00  0.274703D+00  0.389698D+00
      6  0.194515D+00  0.159003D+00 -0.242918D+00 -0.219171D+00 -0.598852D-01
      7 -0.638073D-01 -0.133906D-01  0.556936D-01  0.305785D-02  0.913465D-02
      8 -0.935384D-02 -0.639419D-01 -0.477833D-01  0.116200D-03  0.715875D-02
      9  0.666893D-01 -0.347343D-01 -0.345476D+00 -0.270426D-02 -0.158232D-01
     10 -0.153145D+00 -0.148014D+00 -0.216591D-01 -0.113740D-01 -0.317216D-01
     11 -0.152062D+00 -0.231655D+00 -0.437333D-01 -0.215640D-01 -0.255601D-01
     12 -0.326761D-01 -0.568099D-01 -0.842298D-01  0.799330D-02  0.767332D-02
     13  0.294055D-02  0.846288D-02  0.231689D-01 -0.505437D-01 -0.126182D-01
     14 -0.283380D-02  0.355553D-02  0.107360D-01 -0.488436D-02 -0.621287D-01
     15 -0.760405D-02 -0.257867D-01 -0.426707D-01  0.516207D-01 -0.454573D-01
     16 -0.819348D-02 -0.172255D-01 -0.132813D-01 -0.847838D-01 -0.805910D-01
     17 -0.110264D-01 -0.164092D-01 -0.150730D-01 -0.843560D-01 -0.125669D+00
     18  0.360203D-02  0.496505D-02  0.409198D-02 -0.183433D-01 -0.289985D-01
                6             7             8             9            10 
      6  0.631019D+00
      7  0.218613D-01  0.525976D-01
      8  0.133324D-01  0.179197D-01  0.696938D-01
      9 -0.322277D-01 -0.579656D-01  0.786109D-01  0.421063D+00
     10 -0.196706D-01  0.718152D-02 -0.373836D-02 -0.158105D-01  0.159478D+00
     11 -0.251607D-01 -0.801596D-02 -0.160430D-01 -0.326025D-01  0.185394D+00
     12  0.432895D-02 -0.274623D-01 -0.464318D-01 -0.322568D-01  0.500138D-01
     13  0.305562D-01  0.325570D-02 -0.618131D-02  0.635574D-02 -0.156058D-02
     14 -0.704566D-01 -0.602613D-02  0.272445D-02 -0.150872D-02  0.576924D-02
     15 -0.321139D+00  0.677914D-02 -0.100739D-02 -0.142273D-01  0.522675D-02
     16 -0.809137D-02 -0.228528D-02  0.123760D-02  0.343536D-02 -0.579704D-03
     17 -0.168329D-01  0.378347D-03  0.407896D-03  0.605786D-02 -0.768840D-02
     18 -0.390634D-01  0.109400D-02  0.327925D-02  0.312453D-02  0.189961D-02
               11            12            13            14            15 
     11  0.272172D+00
     12  0.909737D-01  0.104835D+00
     13  0.382906D-02 -0.612532D-04  0.438194D-01
     14  0.374369D-02  0.464459D-02  0.146605D-01  0.677170D-01
     15  0.109212D-01  0.805996D-02 -0.419504D-01  0.866598D-01  0.390120D+00
     16 -0.758106D-02  0.219259D-02  0.208866D-02 -0.668543D-02 -0.140721D-01
     17 -0.265823D-02 -0.499110D-04 -0.815292D-02 -0.156119D-01 -0.253296D-01
     18 -0.398277D-03 -0.736877D-03 -0.180692D-01 -0.300750D-01 -0.201431D-01
               16            17            18 
     16  0.937535D-01
     17  0.110845D+00  0.159940D+00
     18  0.298168D-01  0.512275D-01  0.527269D-01
 FormGI is forming the generalized inverse of G from B-inverse, IUseBI=4.
 Force constants in internal coordinates: 
                1             2             3             4             5 
      1  0.631287D+00
      2  0.245044D-01  0.444976D+00
      3  0.228828D-01  0.470567D-01  0.441058D+00
      4  0.230131D-01  0.146907D-01  0.150787D-01  0.415272D+00
      5  0.184938D-01  0.778793D-02  0.788775D-02  0.376202D-01  0.259301D+00
      6  0.161801D-01  0.284062D-01 -0.449857D-01  0.111542D-01 -0.379689D-02
      7  0.842360D-02 -0.453945D-01  0.275167D-01 -0.115121D-01  0.645801D-02
      8 -0.246037D-01  0.169883D-01  0.174690D-01  0.357908D-03 -0.266113D-02
      9  0.149774D-01  0.100244D-01 -0.114339D-01  0.368960D-01 -0.360843D-01
     10  0.876152D-02 -0.736912D-02  0.105488D-01 -0.447774D-01  0.219777D-01
     11 -0.237389D-01 -0.265529D-02  0.885153D-03  0.788144D-02  0.141065D-01
     12  0.000000D+00  0.000000D+00  0.197067D-05 -0.209043D-05 -0.337703D-05
     13  0.000000D+00  0.000000D+00  0.100534D-05  0.000000D+00  0.316840D-05
     14 -0.174758D-05  0.000000D+00  0.130061D-05 -0.171387D-05 -0.156309D-05
     15 -0.177437D-05 -0.173185D-05  0.000000D+00  0.000000D+00  0.498234D-05
                6             7             8             9            10 
      6  0.141917D+00
      7 -0.544229D-01  0.137960D+00
      8 -0.874941D-01 -0.835369D-01  0.171031D+00
      9  0.688220D-02 -0.525836D-02 -0.162384D-02  0.136302D+00
     10  0.126811D-02  0.543803D-02 -0.670614D-02 -0.592774D-01  0.123680D+00
     11 -0.815031D-02 -0.179667D-03  0.832997D-02 -0.770249D-01 -0.644022D-01
     12 -0.201443D-05  0.212622D-05  0.000000D+00  0.223024D-05 -0.201928D-05
     13 -0.153951D-05  0.000000D+00  0.000000D+00  0.000000D+00  0.145798D-05
     14  0.000000D+00  0.000000D+00  0.136572D-05  0.105058D-05  0.000000D+00
     15  0.000000D+00 -0.209773D-05  0.195037D-05 -0.151741D-05  0.353142D-05
               11            12            13            14            15 
     11  0.141427D+00
     12  0.000000D+00  0.415006D-01
     13  0.000000D+00  0.839721D-02  0.243341D-01
     14 -0.145950D-05  0.892369D-02 -0.120189D-01  0.290337D-01
     15 -0.153804D-05 -0.241797D-01  0.391802D-02  0.809119D-02  0.361889D-01
 Leave Link  716 at Thu Jun 13 10:39:29 2024, MaxMem=  1073741824 cpu:         0.5
 (Enter /apps/z_install_tree/linux-rocky8-ivybridge/gcc-12.2.0/gaussian-09-D.01-wczn3gur5lpur3omlkzwa2l5ecyxp5ef/g09/l103.exe)

 GradGradGradGradGradGradGradGradGradGradGradGradGradGradGradGradGradGrad
 Berny optimization.
 Red2BG is reusing G-inverse.
 Internal  Forces:  Max     0.000157208 RMS     0.000077217
 Search for a local minimum.
 Step number   1 out of a maximum of    2
 All quantities printed in internal units (Hartrees-Bohrs-Radians)
 Second derivative matrix not updated -- analytic derivatives used.
 The second derivative matrix:
                          R1        R2        R3        R4        R5
           R1           0.63129
           R2           0.02450   0.44498
           R3           0.02288   0.04706   0.44106
           R4           0.02301   0.01469   0.01508   0.41527
           R5           0.01849   0.00779   0.00789   0.03762   0.25930
           A1           0.01618   0.02841  -0.04499   0.01115  -0.00380
           A2           0.00842  -0.04539   0.02752  -0.01151   0.00646
           A3          -0.02460   0.01699   0.01747   0.00036  -0.00266
           A4           0.01498   0.01002  -0.01143   0.03690  -0.03608
           A5           0.00876  -0.00737   0.01055  -0.04478   0.02198
           A6          -0.02374  -0.00266   0.00089   0.00788   0.01411
           D1           0.00000   0.00000   0.00000   0.00000   0.00000
           D2           0.00000   0.00000   0.00000   0.00000   0.00000
           D3           0.00000   0.00000   0.00000   0.00000   0.00000
           D4           0.00000   0.00000   0.00000   0.00000   0.00000
                          A1        A2        A3        A4        A5
           A1           0.14192
           A2          -0.05442   0.13796
           A3          -0.08749  -0.08354   0.17103
           A4           0.00688  -0.00526  -0.00162   0.13630
           A5           0.00127   0.00544  -0.00671  -0.05928   0.12368
           A6          -0.00815  -0.00018   0.00833  -0.07702  -0.06440
           D1           0.00000   0.00000   0.00000   0.00000   0.00000
           D2           0.00000   0.00000   0.00000   0.00000   0.00000
           D3           0.00000   0.00000   0.00000   0.00000   0.00000
           D4           0.00000   0.00000   0.00000   0.00000   0.00000
                          A6        D1        D2        D3        D4
           A6           0.14143
           D1           0.00000   0.04150
           D2           0.00000   0.00840   0.02433
           D3           0.00000   0.00892  -0.01202   0.02903
           D4           0.00000  -0.02418   0.00392   0.00809   0.03619
 ITU=  0
     Eigenvalues ---    0.02779   0.03975   0.06352   0.14946   0.17032
     Eigenvalues ---    0.20171   0.25223   0.28244   0.41658   0.43187
     Eigenvalues ---    0.49258   0.64703
 Angle between quadratic step and forces=  23.02 degrees.
 Linear search not attempted -- first point.
 Iteration  1 RMS(Cart)=  0.00045192 RMS(Int)=  0.00000017
 Iteration  2 RMS(Cart)=  0.00000021 RMS(Int)=  0.00000000
 ITry= 1 IFail=0 DXMaxC= 1.04D-03 DCOld= 1.00D+10 DXMaxT= 3.00D-01 DXLimC= 3.00D+00 Rises=F
 Variable       Old X    -DE/DX   Delta X   Delta X   Delta X     New X
                                 (Linear)    (Quad)   (Total)
    R1        2.50356  -0.00008   0.00000  -0.00013  -0.00013   2.50342
    R2        2.48888  -0.00010   0.00000  -0.00014  -0.00014   2.48874
    R3        2.49190  -0.00003   0.00000  -0.00014  -0.00014   2.49176
    R4        2.52077   0.00016   0.00000   0.00064   0.00064   2.52141
    R5        3.24094  -0.00012   0.00000  -0.00068  -0.00068   3.24026
    A1        2.16887  -0.00002   0.00000  -0.00019  -0.00019   2.16868
    A2        2.15015   0.00005   0.00000   0.00025   0.00025   2.15041
    A3        1.96417  -0.00003   0.00000  -0.00007  -0.00007   1.96410
    A4        2.09547  -0.00006   0.00000  -0.00059  -0.00059   2.09488
    A5        2.17012   0.00014   0.00000   0.00100   0.00100   2.17112
    A6        2.01760  -0.00008   0.00000  -0.00041  -0.00041   2.01718
    D1        3.14159   0.00000   0.00000   0.00000   0.00000   3.14159
    D2       -0.00003   0.00000   0.00000   0.00001   0.00001  -0.00002
    D3        0.00000   0.00000   0.00000  -0.00001  -0.00001   0.00000
    D4        3.14158   0.00000   0.00000   0.00000   0.00000   3.14158
         Item               Value     Threshold  Converged?
 Maximum Force            0.000157     0.000450     YES
 RMS     Force            0.000077     0.000300     YES
 Maximum Displacement     0.001036     0.001800     YES
 RMS     Displacement     0.000452     0.001200     YES
 Predicted change in Energy=-2.194114D-07
 Optimization completed.
    -- Stationary point found.
                           ----------------------------
                           !   Optimized Parameters   !
                           ! (Angstroms and Degrees)  !
 --------------------------                            --------------------------
 ! Name  Definition              Value          Derivative Info.                !
 --------------------------------------------------------------------------------
 ! R1    R(1,2)                  1.3248         -DE/DX =   -0.0001              !
 ! R2    R(1,3)                  1.3171         -DE/DX =   -0.0001              !
 ! R3    R(1,4)                  1.3187         -DE/DX =    0.0                 !
 ! R4    R(2,5)                  1.3339         -DE/DX =    0.0002              !
 ! R5    R(2,6)                  1.715          -DE/DX =   -0.0001              !
 ! A1    A(2,1,3)              124.2668         -DE/DX =    0.0                 !
 ! A2    A(2,1,4)              123.1946         -DE/DX =    0.0                 !
 ! A3    A(3,1,4)              112.5385         -DE/DX =    0.0                 !
 ! A4    A(1,2,5)              120.0614         -DE/DX =   -0.0001              !
 ! A5    A(1,2,6)              124.3389         -DE/DX =    0.0001              !
 ! A6    A(5,2,6)              115.5997         -DE/DX =   -0.0001              !
 ! D1    D(3,1,2,5)            179.9997         -DE/DX =    0.0                 !
 ! D2    D(3,1,2,6)             -0.0015         -DE/DX =    0.0                 !
 ! D3    D(4,1,2,5)              0.0003         -DE/DX =    0.0                 !
 ! D4    D(4,1,2,6)            179.9991         -DE/DX =    0.0                 !
 --------------------------------------------------------------------------------
 GradGradGradGradGradGradGradGradGradGradGradGradGradGradGradGradGradGrad

 Leave Link  103 at Thu Jun 13 10:39:29 2024, MaxMem=  1073741824 cpu:         0.9
 (Enter /apps/z_install_tree/linux-rocky8-ivybridge/gcc-12.2.0/gaussian-09-D.01-wczn3gur5lpur3omlkzwa2l5ecyxp5ef/g09/l9999.exe)
 1\1\GINC-K023\Freq\RB3LYP\Gen\C2Cl1F3\Z5112331\13-Jun-2024\0\\#P Geom=
 AllCheck Guess=TCheck SCRF=Check GenChk RB3LYP/ChkBas Freq\\Trifluoroc
 hloroethene\\0,1\C,49.8030213874,35.6760820814,32.6246759766\C,50.6153
 561332,36.3445137779,31.8193973471\F,49.6367477136,35.9479273463,33.90
 2601003\F,49.0679499067,34.6569081635,32.2249118313\F,50.7191463787,35
 .9964456199,30.5358656434\Cl,51.5837794804,37.6731230111,32.3075471986
 \\Version=ES64L-G09RevD.01\HF=-836.0363685\RMSD=3.225e-09\RMSF=1.127e-
 04\ZeroPoint=0.0198447\Thermal=0.0253771\Dipole=0.0803221,0.1427564,0.
 1291715\DipoleDeriv=0.7833179,0.6539757,-0.179862,0.5952424,0.9542618,
 0.1938613,-0.3398649,0.0039537,1.2861241,0.3111225,0.3867016,0.0048072
 ,0.3926195,0.5944836,0.3859581,0.0209148,0.4051286,1.0225038,-0.217591
 2,-0.1104943,0.1636991,-0.037946,-0.1715548,-0.1434254,0.3613572,0.091
 152,-0.9936976,-0.5350199,-0.56601,0.0048436,-0.6075535,-0.8010422,-0.
 0637123,-0.1082875,-0.1979823,-0.2458127,-0.1708686,-0.1025637,0.05586
 71,-0.0696543,-0.2524182,-0.2793771,0.1455082,-0.1730115,-1.0087209,-0
 .1709605,-0.2616093,-0.0493551,-0.2727081,-0.3237302,-0.0933045,-0.079
 6278,-0.1292405,-0.0603967\Polar=38.7025971,13.439215,42.058827,-3.886
 9934,-0.1832525,38.2411391\PG=C01 [X(C2Cl1F3)]\NImag=0\\0.46349070,0.3
 3418285,0.49194971,-0.22452636,-0.04663725,0.71120280,-0.24128541,-0.1
 6401518,0.18060423,0.38492901,-0.15890730,-0.18349960,0.14249090,0.274
 70338,0.38969828,0.19451520,0.15900304,-0.24291849,-0.21917070,-0.0598
 8517,0.63101922,-0.06380735,-0.01339063,0.05569356,0.00305785,0.009134
 65,0.02186128,0.05259755,-0.00935384,-0.06394191,-0.04778333,0.0001162
 0,0.00715875,0.01333238,0.01791972,0.06969380,0.06668927,-0.03473430,-
 0.34547572,-0.00270426,-0.01582321,-0.03222770,-0.05796563,0.07861087,
 0.42106293,-0.15314502,-0.14801445,-0.02165905,-0.01137400,-0.03172158
 ,-0.01967064,0.00718152,-0.00373836,-0.01581047,0.15947779,-0.15206155
 ,-0.23165453,-0.04373331,-0.02156404,-0.02556011,-0.02516074,-0.008015
 96,-0.01604299,-0.03260250,0.18539356,0.27217216,-0.03267609,-0.056809
 89,-0.08422984,0.00799330,0.00767332,0.00432895,-0.02746234,-0.0464317
 8,-0.03225675,0.05001379,0.09097366,0.10483457,0.00294055,0.00846288,0
 .02316890,-0.05054369,-0.01261818,0.03055623,0.00325570,-0.00618131,0.
 00635574,-0.00156058,0.00382906,-0.00006125,0.04381936,-0.00283380,0.0
 0355553,0.01073600,-0.00488436,-0.06212870,-0.07045664,-0.00602613,0.0
 0272445,-0.00150872,0.00576924,0.00374369,0.00464459,0.01466048,0.0677
 1696,-0.00760405,-0.02578665,-0.04267073,0.05162073,-0.04545733,-0.321
 13860,0.00677914,-0.00100739,-0.01422728,0.00522675,0.01092116,0.00805
 996,-0.04195045,0.08665977,0.39011980,-0.00819348,-0.01722547,-0.01328
 128,-0.08478375,-0.08059096,-0.00809137,-0.00228528,0.00123760,0.00343
 536,-0.00057970,-0.00758106,0.00219259,0.00208866,-0.00668543,-0.01407
 213,0.09375354,-0.01102636,-0.01640920,-0.01507302,-0.08435599,-0.1256
 6862,-0.01683287,0.00037835,0.00040790,0.00605786,-0.00768840,-0.00265
 823,-0.00004991,-0.00815292,-0.01561193,-0.02532957,0.11084532,0.15994
 009,0.00360203,0.00496505,0.00409198,-0.01834330,-0.02899852,-0.039063
 38,0.00109400,0.00327925,0.00312453,0.00189961,-0.00039828,-0.00073688
 ,-0.01806916,-0.03007501,-0.02014315,0.02981682,0.05122750,0.05272690\
 \0.00000148,0.00002956,0.00007438,-0.00000782,-0.00014925,-0.00038064,
 -0.00001133,0.00002015,0.00009610,-0.00000852,-0.00002399,-0.00003802,
 -0.00001674,0.00003752,0.00015182,0.00004293,0.00008601,0.00009636\\\@


 ORIGINALITY CONSISTS NOT IN SAYING WHAT NO ONE HAS EVER SAID BEFORE, 
 BUT IN SAYING WHAT YOU THINK YOUR SELF.

                                    -- JAMES F. STEPHEN
 Job cpu time:       0 days  0 hours  5 minutes 52.4 seconds.
 File lengths (MBytes):  RWF=    132 Int=      0 D2E=      0 Chk=      4 Scr=      2
 Normal termination of Gaussian 09 at Thu Jun 13 10:39:30 2024.
