 Entering Gaussian System, Link 0=g16
 Initial command:
 /apps/gaussian/g16c01/g16/l1.exe "/jobfs/145005180.gadi-pbs/Gau-2235833.inp" -scrdir="/jobfs/145005180.gadi-pbs/"
 Entering Link 1 = /apps/gaussian/g16c01/g16/l1.exe PID=   2235834.
  
 Copyright (c) 1988-2019, Gaussian, Inc.  All Rights Reserved.
  
 This is part of the Gaussian(R) 16 program.  It is based on
 the Gaussian(R) 09 system (copyright 2009, Gaussian, Inc.),
 the Gaussian(R) 03 system (copyright 2003, Gaussian, Inc.),
 the Gaussian(R) 98 system (copyright 1998, Gaussian, Inc.),
 the Gaussian(R) 94 system (copyright 1995, Gaussian, Inc.),
 the Gaussian 92(TM) system (copyright 1992, Gaussian, Inc.),
 the Gaussian 90(TM) system (copyright 1990, Gaussian, Inc.),
 the Gaussian 88(TM) system (copyright 1988, Gaussian, Inc.),
 the Gaussian 86(TM) system (copyright 1986, Carnegie Mellon
 University), and the Gaussian 82(TM) system (copyright 1983,
 Carnegie Mellon University). Gaussian is a federally registered
 trademark of Gaussian, Inc.
  
 This software contains proprietary and confidential information,
 including trade secrets, belonging to Gaussian, Inc.
  
 This software is provided under written license and may be
 used, copied, transmitted, or stored only in accord with that
 written license.
  
 The following legend is applicable only to US Government
 contracts under FAR:
  
                    RESTRICTED RIGHTS LEGEND
  
 Use, reproduction and disclosure by the US Government is
 subject to restrictions as set forth in subparagraphs (a)
 and (c) of the Commercial Computer Software - Restricted
 Rights clause in FAR 52.227-19.
  
 Gaussian, Inc.
 340 Quinnipiac St., Bldg. 40, Wallingford CT 06492
  
  
 ---------------------------------------------------------------
 Warning -- This program may not be used in any manner that
 competes with the business of Gaussian, Inc. or will provide
 assistance to any competitor of Gaussian, Inc.  The licensee
 of this program is prohibited from giving any competitor of
 Gaussian, Inc. access to this program.  By using this program,
 the user acknowledges that Gaussian, Inc. is engaged in the
 business of creating and licensing software in the field of
 computational chemistry and represents and warrants to the
 licensee that it is not a competitor of Gaussian, Inc. and that
 it will not use this program in any manner prohibited above.
 ---------------------------------------------------------------
  

 Cite this work as:
 Gaussian 16, Revision C.01,
 M. J. Frisch, G. W. Trucks, H. B. Schlegel, G. E. Scuseria, 
 M. A. Robb, J. R. Cheeseman, G. Scalmani, V. Barone, 
 G. A. Petersson, H. Nakatsuji, X. Li, M. Caricato, A. V. Marenich, 
 J. Bloino, B. G. Janesko, R. Gomperts, B. Mennucci, H. P. Hratchian, 
 J. V. Ortiz, A. F. Izmaylov, J. L. Sonnenberg, D. Williams-Young, 
 F. Ding, F. Lipparini, F. Egidi, J. Goings, B. Peng, A. Petrone, 
 T. Henderson, D. Ranasinghe, V. G. Zakrzewski, J. Gao, N. Rega, 
 G. Zheng, W. Liang, M. Hada, M. Ehara, K. Toyota, R. Fukuda, 
 J. Hasegawa, M. Ishida, T. Nakajima, Y. Honda, O. Kitao, H. Nakai, 
 T. Vreven, K. Throssell, J. A. Montgomery, Jr., J. E. Peralta, 
 F. Ogliaro, M. J. Bearpark, J. J. Heyd, E. N. Brothers, K. N. Kudin, 
 V. N. Staroverov, T. A. Keith, R. Kobayashi, J. Normand, 
 K. Raghavachari, A. P. Rendell, J. C. Burant, S. S. Iyengar, 
 J. Tomasi, M. Cossi, J. M. Millam, M. Klene, C. Adamo, R. Cammi, 
 J. W. Ochterski, R. L. Martin, K. Morokuma, O. Farkas, 
 J. B. Foresman, and D. J. Fox, Gaussian, Inc., Wallingford CT, 2019.
 
 ******************************************
 Gaussian 16:  ES64L-G16RevC.01  3-Jul-2019
                10-Jul-2025 
 ******************************************
 %chk=Cl2F2_oct_vaccum_M05-2x.chk
 %mem=20GB
 %nprocshared=20
 Will use up to   20 processors via shared memory.
 ---------------
 #P M052X/6-31G*
 ---------------
 1/38=1,172=1/1;
 2/12=2,17=6,18=5,40=1/2;
 3/5=1,6=6,7=1,11=2,25=1,30=1,74=-38/1,2,3;
 4//1;
 5/5=2,38=5/2;
 6/7=2,8=2,9=2,10=2,28=1/1;
 99/5=1,9=1/99;
 Leave Link    1 at Thu Jul 10 13:53:53 2025, MaxMem=  2684354560 cpu:               0.7 elap:               0.1
 (Enter /apps/gaussian/g16c01/g16/l101.exe)
 -----------------------
 Cl2F2_oct_vaccum_M05-2x
 -----------------------
 Symbolic Z-matrix:
 Charge =  0 Multiplicity = 1
 C                    -0.53989   0.38635  -0.00031 
 C                     0.5399   -0.38635  -0.00021 
 F                    -0.44915   1.71273   0.00009 
 Cl                   -2.14641  -0.22404   0.00004 
 F                     0.44915  -1.71273   0.00003 
 Cl                    2.14641   0.22404   0.00009 
 
 ITRead=  0  0  0  0  0  0
 MicOpt= -1 -1 -1 -1 -1 -1
 NAtoms=      6 NQM=        6 NQMF=       0 NMMI=      0 NMMIF=      0
                NMic=       0 NMicF=      0.
                    Isotopes and Nuclear Properties:
 (Nuclear quadrupole moments (NQMom) in fm**2, nuclear magnetic moments (NMagM)
  in nuclear magnetons)

  Atom         1           2           3           4           5           6
 IAtWgt=          12          12          19          35          19          35
 AtmWgt=  12.0000000  12.0000000  18.9984033  34.9688527  18.9984033  34.9688527
 NucSpn=           0           0           1           3           1           3
 AtZEff=  -0.0000000  -0.0000000  -0.0000000  -0.0000000  -0.0000000  -0.0000000
 NQMom=    0.0000000   0.0000000   0.0000000  -8.1650000   0.0000000  -8.1650000
 NMagM=    0.0000000   0.0000000   2.6288670   0.8218740   2.6288670   0.8218740
 AtZNuc=   6.0000000   6.0000000   9.0000000  17.0000000   9.0000000  17.0000000
 Leave Link  101 at Thu Jul 10 13:53:53 2025, MaxMem=  2684354560 cpu:               2.7 elap:               0.4
 (Enter /apps/gaussian/g16c01/g16/l202.exe)
                          Input orientation:                          
 ---------------------------------------------------------------------
 Center     Atomic      Atomic             Coordinates (Angstroms)
 Number     Number       Type             X           Y           Z
 ---------------------------------------------------------------------
      1          6           0       -0.539889    0.386348   -0.000312
      2          6           0        0.539895   -0.386353   -0.000211
      3          9           0       -0.449145    1.712730    0.000086
      4         17           0       -2.146408   -0.224037    0.000035
      5          9           0        0.449146   -1.712730    0.000034
      6         17           0        2.146406    0.224039    0.000085
 ---------------------------------------------------------------------
                    Distance matrix (angstroms):
                    1          2          3          4          5
     1  C    0.000000
     2  C    1.327780   0.000000
     3  F    1.329483   2.320420   0.000000
     4  Cl   1.718567   2.691202   2.575222   0.000000
     5  F    2.320413   1.329478   3.541285   2.992174   0.000000
     6  Cl   2.691194   1.718562   2.992171   4.316135   2.575221
                    6
     6  Cl   0.000000
 Stoichiometry    C2Cl2F2
 Framework group  C1[X(C2Cl2F2)]
 Deg. of freedom    12
 Full point group                 C1      NOp   1
 Largest Abelian subgroup         C1      NOp   1
 Largest concise Abelian subgroup C1      NOp   1
                         Standard orientation:                         
 ---------------------------------------------------------------------
 Center     Atomic      Atomic             Coordinates (Angstroms)
 Number     Number       Type             X           Y           Z
 ---------------------------------------------------------------------
      1          6           0       -0.539889   -0.386348    0.000312
      2          6           0        0.539895    0.386353    0.000211
      3          9           0       -0.449145   -1.712730   -0.000086
      4         17           0       -2.146408    0.224037   -0.000035
      5          9           0        0.449146    1.712730   -0.000034
      6         17           0        2.146406   -0.224039   -0.000085
 ---------------------------------------------------------------------
 Rotational constants (GHZ):           4.2629088           1.5002204           1.1096927
 Leave Link  202 at Thu Jul 10 13:53:54 2025, MaxMem=  2684354560 cpu:               4.1 elap:               0.7
 (Enter /apps/gaussian/g16c01/g16/l301.exe)
 Standard basis: 6-31G(d) (6D, 7F)
 Ernie: Thresh=  0.10000D-02 Tol=  0.10000D-05 Strict=F.
 There are    98 symmetry adapted cartesian basis functions of A   symmetry.
 There are    98 symmetry adapted basis functions of A   symmetry.
    98 basis functions,   216 primitive gaussians,    98 cartesian basis functions
    32 alpha electrons       32 beta electrons
       nuclear repulsion energy       349.4263271574 Hartrees.
 IExCor= 3428 DFT=T Ex+Corr=M052X ExCW=0 ScaHFX=  0.560000
 ScaDFX=  0.440000  0.440000  1.000000  1.000000 ScalE2=  1.000000  1.000000
 IRadAn=      5 IRanWt=     -1 IRanGd=            0 ICorTp=0 IEmpDi=  4
 NAtoms=    6 NActive=    6 NUniq=    6 SFac= 1.00D+00 NAtFMM=   60 NAOKFM=F Big=F
 Integral buffers will be    131072 words long.
 Raffenetti 2 integral format.
 Two-electron integral symmetry is turned on.
 Leave Link  301 at Thu Jul 10 13:53:54 2025, MaxMem=  2684354560 cpu:               2.0 elap:               0.3
 (Enter /apps/gaussian/g16c01/g16/l302.exe)
 NPDir=0 NMtPBC=     1 NCelOv=     1 NCel=       1 NClECP=     1 NCelD=      1
         NCelK=      1 NCelE2=     1 NClLst=     1 CellRange=     0.0.
 One-electron integrals computed using PRISM.
 One-electron integral symmetry used in STVInt
 NBasis=    98 RedAO= T EigKep=  3.20D-03  NBF=    98
 NBsUse=    98 1.00D-06 EigRej= -1.00D+00 NBFU=    98
 Precomputing XC quadrature grid using
 IXCGrd= 4 IRadAn=           5 IRanWt=          -1 IRanGd=           0 AccXCQ= 0.00D+00.
 Generated NRdTot=       0 NPtTot=           0 NUsed=           0 NTot=          32
 NSgBfM=    97    97    97    97    97 MxSgAt=     6 MxSgA2=     6.
 Leave Link  302 at Thu Jul 10 13:53:55 2025, MaxMem=  2684354560 cpu:               3.7 elap:               0.3
 (Enter /apps/gaussian/g16c01/g16/l303.exe)
 DipDrv:  MaxL=1.
 Leave Link  303 at Thu Jul 10 13:53:55 2025, MaxMem=  2684354560 cpu:               1.8 elap:               0.2
 (Enter /apps/gaussian/g16c01/g16/l401.exe)
 ExpMin= 1.43D-01 ExpMax= 2.52D+04 ExpMxC= 3.78D+03 IAcc=3 IRadAn=         5 AccDes= 0.00D+00
 Harris functional with IExCor= 1009 and IRadAn=       5 diagonalized for initial guess.
 HarFok:  IExCor= 1009 AccDes= 0.00D+00 IRadAn=         5 IDoV= 1 UseB2=F ITyADJ=14
 ICtDFT=  3500011 ScaDFX=  1.000000  1.000000  1.000000  1.000000
 FoFCou: FMM=F IPFlag=           0 FMFlag=      100000 FMFlg1=           0
         NFxFlg=           0 DoJE=T BraDBF=F KetDBF=T FulRan=T
         wScrn=  0.000000 ICntrl=       500 IOpCl=  0 I1Cent=   200000004 NGrid=           0
         NMat0=    1 NMatS0=      1 NMatT0=    0 NMatD0=    1 NMtDS0=    0 NMtDT0=    0
 Petite list used in FoFCou.
 Harris En= -1195.41461088036    
 JPrj=0 DoOrth=F DoCkMO=F.
 Leave Link  401 at Thu Jul 10 13:53:55 2025, MaxMem=  2684354560 cpu:               4.6 elap:               0.3
 (Enter /apps/gaussian/g16c01/g16/l502.exe)
 Keep R1 ints in memory in canonical form, NReq=30232002.
 FoFCou: FMM=F IPFlag=           0 FMFlag=           0 FMFlg1=           0
         NFxFlg=           0 DoJE=F BraDBF=F KetDBF=F FulRan=T
         wScrn=  0.000000 ICntrl=       600 IOpCl=  0 I1Cent=           0 NGrid=           0
         NMat0=    1 NMatS0=   4851 NMatT0=    0 NMatD0=    1 NMtDS0=    0 NMtDT0=    0
 Symmetry not used in FoFCou.
 Two-electron integral symmetry not used.
 Closed shell SCF:
 Using DIIS extrapolation, IDIIS=  1040.
 NGot=  2684354560 LenX=  2672563676 LenY=  2672553631
 Requested convergence on RMS density matrix=1.00D-08 within 128 cycles.
 Requested convergence on MAX density matrix=1.00D-06.
 Requested convergence on             energy=1.00D-06.
 No special actions if energy rises.
 Integral accuracy reduced to 1.0D-05 until final iterations.

 Cycle   1  Pass 0  IDiag  1:
 E= -1196.11167518357    
 DIIS: error= 3.02D-02 at cycle   1 NSaved=   1.
 NSaved= 1 IEnMin= 1 EnMin= -1196.11167518357     IErMin= 1 ErrMin= 3.02D-02
 ErrMax= 3.02D-02  0.00D+00 EMaxC= 1.00D-01 BMatC= 7.77D-02 BMatP= 7.77D-02
 IDIUse=3 WtCom= 6.98D-01 WtEn= 3.02D-01
 Coeff-Com:  0.100D+01
 Coeff-En:   0.100D+01
 Coeff:      0.100D+01
 Gap=     0.353 Goal=   None    Shift=    0.000
 GapD=    0.353 DampG=1.000 DampE=0.500 DampFc=0.5000 IDamp=-1.
 Damping current iteration by 5.00D-01
 RMSDP=3.58D-03 MaxDP=8.32D-02              OVMax= 6.57D-02

 Cycle   2  Pass 0  IDiag  1:
 E= -1196.13139780042     Delta-E=       -0.019722616850 Rises=F Damp=T
 DIIS: error= 1.17D-02 at cycle   2 NSaved=   2.
 NSaved= 2 IEnMin= 2 EnMin= -1196.13139780042     IErMin= 2 ErrMin= 1.17D-02
 ErrMax= 1.17D-02  0.00D+00 EMaxC= 1.00D-01 BMatC= 1.04D-02 BMatP= 7.77D-02
 IDIUse=3 WtCom= 8.83D-01 WtEn= 1.17D-01
 Coeff-Com: -0.270D+00 0.127D+01
 Coeff-En:   0.000D+00 0.100D+01
 Coeff:     -0.238D+00 0.124D+01
 Gap=     0.365 Goal=   None    Shift=    0.000
 RMSDP=1.09D-03 MaxDP=1.29D-02 DE=-1.97D-02 OVMax= 3.39D-02

 Cycle   3  Pass 0  IDiag  1:
 E= -1196.14922526405     Delta-E=       -0.017827463636 Rises=F Damp=F
 DIIS: error= 4.37D-03 at cycle   3 NSaved=   3.
 NSaved= 3 IEnMin= 3 EnMin= -1196.14922526405     IErMin= 3 ErrMin= 4.37D-03
 ErrMax= 4.37D-03  0.00D+00 EMaxC= 1.00D-01 BMatC= 2.17D-03 BMatP= 1.04D-02
 IDIUse=3 WtCom= 9.56D-01 WtEn= 4.37D-02
 Coeff-Com: -0.187D+00 0.445D+00 0.742D+00
 Coeff-En:   0.000D+00 0.000D+00 0.100D+01
 Coeff:     -0.179D+00 0.426D+00 0.753D+00
 Gap=     0.357 Goal=   None    Shift=    0.000
 RMSDP=3.61D-04 MaxDP=6.79D-03 DE=-1.78D-02 OVMax= 6.00D-03

 Cycle   4  Pass 0  IDiag  1:
 E= -1196.15051154178     Delta-E=       -0.001286277725 Rises=F Damp=F
 DIIS: error= 9.40D-04 at cycle   4 NSaved=   4.
 NSaved= 4 IEnMin= 4 EnMin= -1196.15051154178     IErMin= 4 ErrMin= 9.40D-04
 ErrMax= 9.40D-04  0.00D+00 EMaxC= 1.00D-01 BMatC= 1.08D-04 BMatP= 2.17D-03
 IDIUse=3 WtCom= 9.91D-01 WtEn= 9.40D-03
 Coeff-Com: -0.618D-01 0.129D+00 0.301D+00 0.632D+00
 Coeff-En:   0.000D+00 0.000D+00 0.000D+00 0.100D+01
 Coeff:     -0.612D-01 0.128D+00 0.298D+00 0.636D+00
 Gap=     0.354 Goal=   None    Shift=    0.000
 RMSDP=1.13D-04 MaxDP=1.97D-03 DE=-1.29D-03 OVMax= 2.30D-03

 Cycle   5  Pass 0  IDiag  1:
 E= -1196.15058929735     Delta-E=       -0.000077755571 Rises=F Damp=F
 DIIS: error= 3.78D-04 at cycle   5 NSaved=   5.
 NSaved= 5 IEnMin= 5 EnMin= -1196.15058929735     IErMin= 5 ErrMin= 3.78D-04
 ErrMax= 3.78D-04  0.00D+00 EMaxC= 1.00D-01 BMatC= 9.95D-06 BMatP= 1.08D-04
 IDIUse=3 WtCom= 9.96D-01 WtEn= 3.78D-03
 Coeff-Com: -0.971D-02 0.155D-01 0.591D-01 0.283D+00 0.652D+00
 Coeff-En:   0.000D+00 0.000D+00 0.000D+00 0.000D+00 0.100D+01
 Coeff:     -0.967D-02 0.154D-01 0.589D-01 0.282D+00 0.654D+00
 Gap=     0.355 Goal=   None    Shift=    0.000
 RMSDP=4.20D-05 MaxDP=5.98D-04 DE=-7.78D-05 OVMax= 7.95D-04

 Cycle   6  Pass 0  IDiag  1:
 E= -1196.15059830735     Delta-E=       -0.000009009999 Rises=F Damp=F
 DIIS: error= 6.47D-05 at cycle   6 NSaved=   6.
 NSaved= 6 IEnMin= 6 EnMin= -1196.15059830735     IErMin= 6 ErrMin= 6.47D-05
 ErrMax= 6.47D-05  0.00D+00 EMaxC= 1.00D-01 BMatC= 2.10D-07 BMatP= 9.95D-06
 IDIUse=1 WtCom= 1.00D+00 WtEn= 0.00D+00
 Coeff-Com:  0.417D-02-0.926D-02-0.174D-01 0.295D-02 0.100D+00 0.919D+00
 Coeff:      0.417D-02-0.926D-02-0.174D-01 0.295D-02 0.100D+00 0.919D+00
 Gap=     0.355 Goal=   None    Shift=    0.000
 RMSDP=9.86D-06 MaxDP=2.42D-04 DE=-9.01D-06 OVMax= 2.50D-04

 Initial convergence to 1.0D-05 achieved.  Increase integral accuracy.
 Cycle   7  Pass 1  IDiag  1:
 E= -1196.15062902717     Delta-E=       -0.000030719819 Rises=F Damp=F
 DIIS: error= 8.33D-05 at cycle   1 NSaved=   1.
 NSaved= 1 IEnMin= 1 EnMin= -1196.15062902717     IErMin= 1 ErrMin= 8.33D-05
 ErrMax= 8.33D-05  0.00D+00 EMaxC= 1.00D-01 BMatC= 3.15D-07 BMatP= 3.15D-07
 IDIUse=1 WtCom= 1.00D+00 WtEn= 0.00D+00
 Coeff-Com:  0.100D+01
 Coeff:      0.100D+01
 Gap=     0.355 Goal=   None    Shift=    0.000
 RMSDP=9.86D-06 MaxDP=2.42D-04 DE=-3.07D-05 OVMax= 1.20D-04

 Cycle   8  Pass 1  IDiag  1:
 E= -1196.15062926735     Delta-E=       -0.000000240187 Rises=F Damp=F
 DIIS: error= 1.12D-05 at cycle   2 NSaved=   2.
 NSaved= 2 IEnMin= 2 EnMin= -1196.15062926735     IErMin= 2 ErrMin= 1.12D-05
 ErrMax= 1.12D-05  0.00D+00 EMaxC= 1.00D-01 BMatC= 1.85D-08 BMatP= 3.15D-07
 IDIUse=1 WtCom= 1.00D+00 WtEn= 0.00D+00
 Coeff-Com:  0.951D-01 0.905D+00
 Coeff:      0.951D-01 0.905D+00
 Gap=     0.355 Goal=   None    Shift=    0.000
 RMSDP=3.00D-06 MaxDP=7.51D-05 DE=-2.40D-07 OVMax= 5.34D-05

 Cycle   9  Pass 1  IDiag  1:
 E= -1196.15062928298     Delta-E=       -0.000000015628 Rises=F Damp=F
 DIIS: error= 5.77D-06 at cycle   3 NSaved=   3.
 NSaved= 3 IEnMin= 3 EnMin= -1196.15062928298     IErMin= 3 ErrMin= 5.77D-06
 ErrMax= 5.77D-06  0.00D+00 EMaxC= 1.00D-01 BMatC= 6.18D-09 BMatP= 1.85D-08
 IDIUse=1 WtCom= 1.00D+00 WtEn= 0.00D+00
 Coeff-Com: -0.254D-01 0.336D+00 0.690D+00
 Coeff:     -0.254D-01 0.336D+00 0.690D+00
 Gap=     0.355 Goal=   None    Shift=    0.000
 RMSDP=1.12D-06 MaxDP=3.31D-05 DE=-1.56D-08 OVMax= 2.26D-05

 Cycle  10  Pass 1  IDiag  1:
 E= -1196.15062928853     Delta-E=       -0.000000005544 Rises=F Damp=F
 DIIS: error= 1.58D-06 at cycle   4 NSaved=   4.
 NSaved= 4 IEnMin= 4 EnMin= -1196.15062928853     IErMin= 4 ErrMin= 1.58D-06
 ErrMax= 1.58D-06  0.00D+00 EMaxC= 1.00D-01 BMatC= 3.43D-10 BMatP= 6.18D-09
 IDIUse=1 WtCom= 1.00D+00 WtEn= 0.00D+00
 Coeff-Com: -0.146D-01 0.657D-01 0.245D+00 0.704D+00
 Coeff:     -0.146D-01 0.657D-01 0.245D+00 0.704D+00
 Gap=     0.355 Goal=   None    Shift=    0.000
 RMSDP=2.33D-07 MaxDP=3.20D-06 DE=-5.54D-09 OVMax= 5.53D-06

 Cycle  11  Pass 1  IDiag  1:
 E= -1196.15062928882     Delta-E=       -0.000000000296 Rises=F Damp=F
 DIIS: error= 2.77D-07 at cycle   5 NSaved=   5.
 NSaved= 5 IEnMin= 5 EnMin= -1196.15062928882     IErMin= 5 ErrMin= 2.77D-07
 ErrMax= 2.77D-07  0.00D+00 EMaxC= 1.00D-01 BMatC= 1.23D-11 BMatP= 3.43D-10
 IDIUse=1 WtCom= 1.00D+00 WtEn= 0.00D+00
 Coeff-Com:  0.134D-02-0.267D-01-0.329D-01 0.827D-01 0.976D+00
 Coeff:      0.134D-02-0.267D-01-0.329D-01 0.827D-01 0.976D+00
 Gap=     0.355 Goal=   None    Shift=    0.000
 RMSDP=8.18D-08 MaxDP=1.08D-06 DE=-2.96D-10 OVMax= 1.67D-06

 Cycle  12  Pass 1  IDiag  1:
 E= -1196.15062928884     Delta-E=       -0.000000000017 Rises=F Damp=F
 DIIS: error= 1.09D-07 at cycle   6 NSaved=   6.
 NSaved= 6 IEnMin= 6 EnMin= -1196.15062928884     IErMin= 6 ErrMin= 1.09D-07
 ErrMax= 1.09D-07  0.00D+00 EMaxC= 1.00D-01 BMatC= 1.21D-12 BMatP= 1.23D-11
 IDIUse=1 WtCom= 1.00D+00 WtEn= 0.00D+00
 Coeff-Com:  0.914D-03-0.110D-01-0.197D-01-0.737D-03 0.320D+00 0.711D+00
 Coeff:      0.914D-03-0.110D-01-0.197D-01-0.737D-03 0.320D+00 0.711D+00
 Gap=     0.355 Goal=   None    Shift=    0.000
 RMSDP=1.79D-08 MaxDP=2.55D-07 DE=-1.71D-11 OVMax= 3.97D-07

 Cycle  13  Pass 1  IDiag  1:
 E= -1196.15062928884     Delta-E=       -0.000000000003 Rises=F Damp=F
 DIIS: error= 6.42D-08 at cycle   7 NSaved=   7.
 NSaved= 7 IEnMin= 7 EnMin= -1196.15062928884     IErMin= 7 ErrMin= 6.42D-08
 ErrMax= 6.42D-08  0.00D+00 EMaxC= 1.00D-01 BMatC= 2.79D-13 BMatP= 1.21D-12
 IDIUse=1 WtCom= 1.00D+00 WtEn= 0.00D+00
 Coeff-Com:  0.273D-03-0.166D-02-0.517D-02-0.101D-01 0.151D-01 0.337D+00
 Coeff-Com:  0.664D+00
 Coeff:      0.273D-03-0.166D-02-0.517D-02-0.101D-01 0.151D-01 0.337D+00
 Coeff:      0.664D+00
 Gap=     0.355 Goal=   None    Shift=    0.000
 RMSDP=6.61D-09 MaxDP=7.43D-08 DE=-3.18D-12 OVMax= 1.33D-07

 SCF Done:  E(RM052X) =  -1196.15062929     A.U. after   13 cycles
            NFock= 13  Conv=0.66D-08     -V/T= 2.0040
 KE= 1.191368295549D+03 PE=-3.537611665170D+03 EE= 8.006664131747D+02
 Leave Link  502 at Thu Jul 10 13:53:57 2025, MaxMem=  2684354560 cpu:              35.8 elap:               2.1
 (Enter /apps/gaussian/g16c01/g16/l601.exe)
 Copying SCF densities to generalized density rwf, IOpCl= 0 IROHF=0.

 **********************************************************************

            Population analysis using the SCF Density.

 **********************************************************************

 Orbital symmetries:
       Occupied  (A) (A) (A) (A) (A) (A) (A) (A) (A) (A) (A) (A)
                 (A) (A) (A) (A) (A) (A) (A) (A) (A) (A) (A) (A)
                 (A) (A) (A) (A) (A) (A) (A) (A)
       Virtual   (A) (A) (A) (A) (A) (A) (A) (A) (A) (A) (A) (A)
                 (A) (A) (A) (A) (A) (A) (A) (A) (A) (A) (A) (A)
                 (A) (A) (A) (A) (A) (A) (A) (A) (A) (A) (A) (A)
                 (A) (A) (A) (A) (A) (A) (A) (A) (A) (A) (A) (A)
                 (A) (A) (A) (A) (A) (A) (A) (A) (A) (A) (A) (A)
                 (A) (A) (A) (A) (A) (A)
 The electronic state is 1-A.
 Alpha  occ. eigenvalues -- -102.80902-102.80902 -25.35976 -25.35976 -10.74925
 Alpha  occ. eigenvalues --  -10.74807  -9.85459  -9.85458  -7.58099  -7.58096
 Alpha  occ. eigenvalues --   -7.57416  -7.57416  -7.57413  -7.57412  -1.41071
 Alpha  occ. eigenvalues --   -1.40487  -1.02621  -1.00123  -0.87071  -0.73198
 Alpha  occ. eigenvalues --   -0.67846  -0.64190  -0.62544  -0.59293  -0.59001
 Alpha  occ. eigenvalues --   -0.53847  -0.49163  -0.45669  -0.43848  -0.43107
 Alpha  occ. eigenvalues --   -0.41433  -0.31932
 Alpha virt. eigenvalues --    0.03551   0.03844   0.09863   0.13110   0.24395
 Alpha virt. eigenvalues --    0.37114   0.38906   0.39568   0.44761   0.46955
 Alpha virt. eigenvalues --    0.47126   0.47695   0.47799   0.48877   0.57525
 Alpha virt. eigenvalues --    0.58086   0.62889   0.64535   0.72769   0.82436
 Alpha virt. eigenvalues --    0.86263   0.88200   0.89564   0.90793   0.93524
 Alpha virt. eigenvalues --    0.95060   0.97497   0.98543   1.07746   1.09504
 Alpha virt. eigenvalues --    1.11982   1.16162   1.23822   1.26561   1.33149
 Alpha virt. eigenvalues --    1.38019   1.43440   1.45890   1.50575   1.51592
 Alpha virt. eigenvalues --    1.68080   1.75670   1.80406   1.82978   1.89098
 Alpha virt. eigenvalues --    1.93439   1.95497   2.01610   2.03480   2.06763
 Alpha virt. eigenvalues --    2.12849   2.20510   2.35221   2.41758   2.54615
 Alpha virt. eigenvalues --    2.56827   2.81465   2.88360   3.09633   3.14232
 Alpha virt. eigenvalues --    4.06040   4.18189   4.33288   4.37487   4.75652
 Alpha virt. eigenvalues --    4.75879
          Condensed to atoms (all electrons):
               1          2          3          4          5          6
     1  C    5.023426   0.405924   0.285187   0.269500  -0.054299  -0.085219
     2  C    0.405924   5.023421  -0.054299  -0.085218   0.285189   0.269500
     3  F    0.285187  -0.054299   9.037346  -0.039898   0.000243   0.005272
     4  Cl   0.269500  -0.085218  -0.039898  16.768057   0.005272   0.003919
     5  F   -0.054299   0.285189   0.000243   0.005272   9.037342  -0.039897
     6  Cl  -0.085219   0.269500   0.005272   0.003919  -0.039897  16.768056
 Mulliken charges:
               1
     1  C    0.155481
     2  C    0.155483
     3  F   -0.233852
     4  Cl   0.078368
     5  F   -0.233849
     6  Cl   0.078370
 Sum of Mulliken charges =  -0.00000
 Mulliken charges with hydrogens summed into heavy atoms:
               1
     1  C    0.155481
     2  C    0.155483
     3  F   -0.233852
     4  Cl   0.078368
     5  F   -0.233849
     6  Cl   0.078370
 Electronic spatial extent (au):  <R**2>=            886.9178
 Charge=             -0.0000 electrons
 Dipole moment (field-independent basis, Debye):
    X=              0.0000    Y=              0.0000    Z=              0.0003  Tot=              0.0003
 Quadrupole moment (field-independent basis, Debye-Ang):
   XX=            -43.5951   YY=            -47.1747   ZZ=            -45.1292
   XY=             -0.9888   XZ=              0.0000   YZ=             -0.0001
 Traceless Quadrupole moment (field-independent basis, Debye-Ang):
   XX=              1.7046   YY=             -1.8751   ZZ=              0.1705
   XY=             -0.9888   XZ=              0.0000   YZ=             -0.0001
 Octapole moment (field-independent basis, Debye-Ang**2):
  XXX=              0.0001  YYY=              0.0000  ZZZ=             -0.0026  XYY=              0.0001
  XXY=             -0.0000  XXZ=             -0.0036  XZZ=              0.0000  YZZ=              0.0000
  YYZ=             -0.0007  XYZ=              0.0009
 Hexadecapole moment (field-independent basis, Debye-Ang**3):
 XXXX=           -701.7030 YYYY=           -225.8602 ZZZZ=            -43.3699 XXXY=             -9.2101
 XXXZ=              0.0053 YYYX=              5.0538 YYYZ=             -0.0009 ZZZX=              0.0047
 ZZZY=             -0.0011 XXYY=           -161.1710 XXZZ=           -136.3567 YYZZ=            -43.7270
 XXYZ=             -0.0005 YYXZ=              0.0015 ZZXY=              3.1015
 N-N= 3.494263271574D+02 E-N=-3.537611666705D+03  KE= 1.191368295549D+03
 No NMR shielding tensors so no spin-rotation constants.
 Leave Link  601 at Thu Jul 10 13:53:58 2025, MaxMem=  2684354560 cpu:               9.7 elap:               0.9
 (Enter /apps/gaussian/g16c01/g16/l9999.exe)
 Unable to Open any file for archive entry.
 1\1\GINC-GADI-CPU-CLX-0141\SP\RM052X\6-31G(d)\C2Cl2F2\YR9300\10-Jul-20
 25\0\\#P M052X/6-31G*\\Cl2F2_oct_vaccum_M05-2x\\0,1\C,0,-0.539889,0.38
 6348,-0.000312\C,0,0.539895,-0.386353,-0.000211\F,0,-0.449145,1.71273,
 0.000086\Cl,0,-2.146408,-0.224037,0.000035\F,0,0.449146,-1.71273,0.000
 034\Cl,0,2.146406,0.224039,0.000085\\Version=ES64L-G16RevC.01\State=1-
 A\HF=-1196.1506293\RMSD=6.606e-09\Dipole=0.0000121,-0.0000078,-0.00010
 1\Quadrupole=1.2673218,-1.394059,0.1267373,0.7351424,-0.0000216,-0.000
 0834\PG=C01 [X(C2Cl2F2)]\\@
 The archive entry for this job was punched.


 There was a great rattling of the words for the fewness of ideas.
                   -- Charles Baxter in Gryphon
 Job cpu time:       0 days  0 hours  1 minutes  6.7 seconds.
 Elapsed time:       0 days  0 hours  0 minutes  5.4 seconds.
 File lengths (MBytes):  RWF=     10 Int=      0 D2E=      0 Chk=      2 Scr=      1
 Normal termination of Gaussian 16 at Thu Jul 10 13:53:58 2025.
