 Entering Gaussian System, Link 0=g16
 Initial command:
 /apps/gaussian/g16c01/g16/l1.exe "/jobfs/145005152.gadi-pbs/Gau-2909443.inp" -scrdir="/jobfs/145005152.gadi-pbs/"
 Entering Link 1 = /apps/gaussian/g16c01/g16/l1.exe PID=   2909448.
  
 Copyright (c) 1988-2019, Gaussian, Inc.  All Rights Reserved.
  
 This is part of the Gaussian(R) 16 program.  It is based on
 the Gaussian(R) 09 system (copyright 2009, Gaussian, Inc.),
 the Gaussian(R) 03 system (copyright 2003, Gaussian, Inc.),
 the Gaussian(R) 98 system (copyright 1998, Gaussian, Inc.),
 the Gaussian(R) 94 system (copyright 1995, Gaussian, Inc.),
 the Gaussian 92(TM) system (copyright 1992, Gaussian, Inc.),
 the Gaussian 90(TM) system (copyright 1990, Gaussian, Inc.),
 the Gaussian 88(TM) system (copyright 1988, Gaussian, Inc.),
 the Gaussian 86(TM) system (copyright 1986, Carnegie Mellon
 University), and the Gaussian 82(TM) system (copyright 1983,
 Carnegie Mellon University). Gaussian is a federally registered
 trademark of Gaussian, Inc.
  
 This software contains proprietary and confidential information,
 including trade secrets, belonging to Gaussian, Inc.
  
 This software is provided under written license and may be
 used, copied, transmitted, or stored only in accord with that
 written license.
  
 The following legend is applicable only to US Government
 contracts under FAR:
  
                    RESTRICTED RIGHTS LEGEND
  
 Use, reproduction and disclosure by the US Government is
 subject to restrictions as set forth in subparagraphs (a)
 and (c) of the Commercial Computer Software - Restricted
 Rights clause in FAR 52.227-19.
  
 Gaussian, Inc.
 340 Quinnipiac St., Bldg. 40, Wallingford CT 06492
  
  
 ---------------------------------------------------------------
 Warning -- This program may not be used in any manner that
 competes with the business of Gaussian, Inc. or will provide
 assistance to any competitor of Gaussian, Inc.  The licensee
 of this program is prohibited from giving any competitor of
 Gaussian, Inc. access to this program.  By using this program,
 the user acknowledges that Gaussian, Inc. is engaged in the
 business of creating and licensing software in the field of
 computational chemistry and represents and warrants to the
 licensee that it is not a competitor of Gaussian, Inc. and that
 it will not use this program in any manner prohibited above.
 ---------------------------------------------------------------
  

 Cite this work as:
 Gaussian 16, Revision C.01,
 M. J. Frisch, G. W. Trucks, H. B. Schlegel, G. E. Scuseria, 
 M. A. Robb, J. R. Cheeseman, G. Scalmani, V. Barone, 
 G. A. Petersson, H. Nakatsuji, X. Li, M. Caricato, A. V. Marenich, 
 J. Bloino, B. G. Janesko, R. Gomperts, B. Mennucci, H. P. Hratchian, 
 J. V. Ortiz, A. F. Izmaylov, J. L. Sonnenberg, D. Williams-Young, 
 F. Ding, F. Lipparini, F. Egidi, J. Goings, B. Peng, A. Petrone, 
 T. Henderson, D. Ranasinghe, V. G. Zakrzewski, J. Gao, N. Rega, 
 G. Zheng, W. Liang, M. Hada, M. Ehara, K. Toyota, R. Fukuda, 
 J. Hasegawa, M. Ishida, T. Nakajima, Y. Honda, O. Kitao, H. Nakai, 
 T. Vreven, K. Throssell, J. A. Montgomery, Jr., J. E. Peralta, 
 F. Ogliaro, M. J. Bearpark, J. J. Heyd, E. N. Brothers, K. N. Kudin, 
 V. N. Staroverov, T. A. Keith, R. Kobayashi, J. Normand, 
 K. Raghavachari, A. P. Rendell, J. C. Burant, S. S. Iyengar, 
 J. Tomasi, M. Cossi, J. M. Millam, M. Klene, C. Adamo, R. Cammi, 
 J. W. Ochterski, R. L. Martin, K. Morokuma, O. Farkas, 
 J. B. Foresman, and D. J. Fox, Gaussian, Inc., Wallingford CT, 2019.
 
 ******************************************
 Gaussian 16:  ES64L-G16RevC.01  3-Jul-2019
                10-Jul-2025 
 ******************************************
 %chk=Cl2F2_oct_M05-2x.chk
 %mem=20GB
 %nprocshared=20
 Will use up to   20 processors via shared memory.
 -------------------------------------------
 #P M052X/6-31G* scrf(SMD,solvent=n-octanol)
 -------------------------------------------
 1/38=1,172=1/1;
 2/12=2,17=6,18=5,40=1/2;
 3/5=1,6=6,7=1,11=2,25=1,30=1,70=32201,72=25,74=-38/1,2,3;
 4//1;
 5/5=2,38=5,53=25/2;
 6/7=2,8=2,9=2,10=2,28=1/1;
 99/5=1,9=1/99;
 Leave Link    1 at Thu Jul 10 13:53:57 2025, MaxMem=  2684354560 cpu:               1.4 elap:               0.1
 (Enter /apps/gaussian/g16c01/g16/l101.exe)
 ----------------
 Cl2F2_oct_M05-2x
 ----------------
 Symbolic Z-matrix:
 Charge =  0 Multiplicity = 1
 C                    -0.53989   0.38635  -0.00031 
 C                     0.5399   -0.38635  -0.00021 
 F                    -0.44915   1.71273   0.00009 
 Cl                   -2.14641  -0.22404   0.00004 
 F                     0.44915  -1.71273   0.00003 
 Cl                    2.14641   0.22404   0.00009 
 
 ITRead=  0  0  0  0  0  0
 MicOpt= -1 -1 -1 -1 -1 -1
 NAtoms=      6 NQM=        6 NQMF=       0 NMMI=      0 NMMIF=      0
                NMic=       0 NMicF=      0.
                    Isotopes and Nuclear Properties:
 (Nuclear quadrupole moments (NQMom) in fm**2, nuclear magnetic moments (NMagM)
  in nuclear magnetons)

  Atom         1           2           3           4           5           6
 IAtWgt=          12          12          19          35          19          35
 AtmWgt=  12.0000000  12.0000000  18.9984033  34.9688527  18.9984033  34.9688527
 NucSpn=           0           0           1           3           1           3
 AtZEff=  -0.0000000  -0.0000000  -0.0000000  -0.0000000  -0.0000000  -0.0000000
 NQMom=    0.0000000   0.0000000   0.0000000  -8.1650000   0.0000000  -8.1650000
 NMagM=    0.0000000   0.0000000   2.6288670   0.8218740   2.6288670   0.8218740
 AtZNuc=   6.0000000   6.0000000   9.0000000  17.0000000   9.0000000  17.0000000
 Leave Link  101 at Thu Jul 10 13:53:57 2025, MaxMem=  2684354560 cpu:               6.1 elap:               0.4
 (Enter /apps/gaussian/g16c01/g16/l202.exe)
                          Input orientation:                          
 ---------------------------------------------------------------------
 Center     Atomic      Atomic             Coordinates (Angstroms)
 Number     Number       Type             X           Y           Z
 ---------------------------------------------------------------------
      1          6           0       -0.539889    0.386348   -0.000312
      2          6           0        0.539895   -0.386353   -0.000211
      3          9           0       -0.449145    1.712730    0.000086
      4         17           0       -2.146408   -0.224037    0.000035
      5          9           0        0.449146   -1.712730    0.000034
      6         17           0        2.146406    0.224039    0.000085
 ---------------------------------------------------------------------
                    Distance matrix (angstroms):
                    1          2          3          4          5
     1  C    0.000000
     2  C    1.327780   0.000000
     3  F    1.329483   2.320420   0.000000
     4  Cl   1.718567   2.691202   2.575222   0.000000
     5  F    2.320413   1.329478   3.541285   2.992174   0.000000
     6  Cl   2.691194   1.718562   2.992171   4.316135   2.575221
                    6
     6  Cl   0.000000
 Stoichiometry    C2Cl2F2
 Framework group  C1[X(C2Cl2F2)]
 Deg. of freedom    12
 Full point group                 C1      NOp   1
 Largest Abelian subgroup         C1      NOp   1
 Largest concise Abelian subgroup C1      NOp   1
                         Standard orientation:                         
 ---------------------------------------------------------------------
 Center     Atomic      Atomic             Coordinates (Angstroms)
 Number     Number       Type             X           Y           Z
 ---------------------------------------------------------------------
      1          6           0       -0.539889   -0.386348    0.000312
      2          6           0        0.539895    0.386353    0.000211
      3          9           0       -0.449145   -1.712730   -0.000086
      4         17           0       -2.146408    0.224037   -0.000035
      5          9           0        0.449146    1.712730   -0.000034
      6         17           0        2.146406   -0.224039   -0.000085
 ---------------------------------------------------------------------
 Rotational constants (GHZ):           4.2629088           1.5002204           1.1096927
 Leave Link  202 at Thu Jul 10 13:53:57 2025, MaxMem=  2684354560 cpu:               0.9 elap:               0.1
 (Enter /apps/gaussian/g16c01/g16/l301.exe)
 Standard basis: 6-31G(d) (6D, 7F)
 Ernie: Thresh=  0.10000D-02 Tol=  0.10000D-05 Strict=F.
 There are    98 symmetry adapted cartesian basis functions of A   symmetry.
 There are    98 symmetry adapted basis functions of A   symmetry.
    98 basis functions,   216 primitive gaussians,    98 cartesian basis functions
    32 alpha electrons       32 beta electrons
       nuclear repulsion energy       349.4263271574 Hartrees.
 IExCor= 3428 DFT=T Ex+Corr=M052X ExCW=0 ScaHFX=  0.560000
 ScaDFX=  0.440000  0.440000  1.000000  1.000000 ScalE2=  1.000000  1.000000
 IRadAn=      5 IRanWt=     -1 IRanGd=            0 ICorTp=0 IEmpDi=  4
 NAtoms=    6 NActive=    6 NUniq=    6 SFac= 1.00D+00 NAtFMM=   60 NAOKFM=F Big=F
 Integral buffers will be    131072 words long.
 Raffenetti 2 integral format.
 Two-electron integral symmetry is turned on.
 ------------------------------------------------------------------------------
 Polarizable Continuum Model (PCM)
 =================================
 Model                : PCM.
 Atomic radii         : SMD-Coulomb.
 Polarization charges : Total charges.
 Charge compensation  : None.
 Solution method      : On-the-fly selection.
 Cavity type          : VdW (van der Waals Surface) (Alpha=1.000).
 Cavity algorithm     : GePol (No added spheres)
                        Default sphere list used, NSphG=    6.
                        Lebedev-Laikov grids with approx.  5.0 points / Ang**2.
                        Smoothing algorithm: York/Karplus (Gamma=1.0000).
                        Polarization charges: spherical gaussians, with
                                              point-specific exponents (IZeta= 3).
                        Self-potential: point-specific (ISelfS= 7).
                        Self-field    : sphere-specific E.n sum rule (ISelfD= 2).
 Solvent              : n-Octanol, Eps=   9.862900 Eps(inf)=   2.043470
 ------------------------------------------------------------------------------
 Spheres list:
 ISph  on   Nord     Re0    Alpha      Xe            Ye            Ze
    1   C      1    1.8500  1.000     -0.539889     -0.386348      0.000312
    2   C      2    1.8500  1.000      0.539895      0.386353      0.000211
    3   F      3    1.7300  1.000     -0.449145     -1.712730     -0.000086
    4  Cl      4    2.3800  1.000     -2.146408      0.224037     -0.000035
    5   F      5    1.7300  1.000      0.449146      1.712730     -0.000034
    6  Cl      6    2.3800  1.000      2.146406     -0.224039     -0.000085
 ------------------------------------------------------------------------------
 GePol: Number of generator spheres                  =       6
 GePol: Total number of spheres                      =       6
 GePol: Number of exposed spheres                    =       6 (100.00%)
 GePol: Number of points                             =     976
 GePol: Average weight of points                     =       0.15
 GePol: Minimum weight of points                     =   0.36D-04
 GePol: Maximum weight of points                     =    0.21501
 GePol: Number of points with low weight             =      14
 GePol: Fraction of low-weight points (<1% of avg)   =       1.43%
 GePol: Cavity surface area                          =    148.563 Ang**2
 GePol: Cavity volume                                =    137.611 Ang**3
 ------------------------------------------------------------------------------
 Atomic radii for non-electrostatic terms: SMD-CDS.
 ------------------------------------------------------------------------------
 PCM non-electrostatic energy =         0.0001305662 Hartrees.
 Nuclear repulsion after PCM non-electrostatic terms =      349.4264577236 Hartrees.
 Leave Link  301 at Thu Jul 10 13:53:58 2025, MaxMem=  2684354560 cpu:               4.1 elap:               0.3
 (Enter /apps/gaussian/g16c01/g16/l302.exe)
 NPDir=0 NMtPBC=     1 NCelOv=     1 NCel=       1 NClECP=     1 NCelD=      1
         NCelK=      1 NCelE2=     1 NClLst=     1 CellRange=     0.0.
 One-electron integrals computed using PRISM.
 One-electron integral symmetry used in STVInt
 NBasis=    98 RedAO= T EigKep=  3.20D-03  NBF=    98
 NBsUse=    98 1.00D-06 EigRej= -1.00D+00 NBFU=    98
 Precomputing XC quadrature grid using
 IXCGrd= 4 IRadAn=           5 IRanWt=          -1 IRanGd=           0 AccXCQ= 0.00D+00.
 Generated NRdTot=       0 NPtTot=           0 NUsed=           0 NTot=          32
 NSgBfM=    97    97    97    97    97 MxSgAt=     6 MxSgA2=     6.
 Leave Link  302 at Thu Jul 10 13:53:58 2025, MaxMem=  2684354560 cpu:               4.2 elap:               0.2
 (Enter /apps/gaussian/g16c01/g16/l303.exe)
 DipDrv:  MaxL=1.
 Leave Link  303 at Thu Jul 10 13:53:58 2025, MaxMem=  2684354560 cpu:               2.6 elap:               0.2
 (Enter /apps/gaussian/g16c01/g16/l401.exe)
 ExpMin= 1.43D-01 ExpMax= 2.52D+04 ExpMxC= 3.78D+03 IAcc=3 IRadAn=         5 AccDes= 0.00D+00
 Harris functional with IExCor= 1009 and IRadAn=       5 diagonalized for initial guess.
 HarFok:  IExCor= 1009 AccDes= 0.00D+00 IRadAn=         5 IDoV= 1 UseB2=F ITyADJ=14
 ICtDFT=  3500011 ScaDFX=  1.000000  1.000000  1.000000  1.000000
 FoFCou: FMM=F IPFlag=           0 FMFlag=      100000 FMFlg1=           0
         NFxFlg=           0 DoJE=T BraDBF=F KetDBF=T FulRan=T
         wScrn=  0.000000 ICntrl=       500 IOpCl=  0 I1Cent=   200000004 NGrid=           0
         NMat0=    1 NMatS0=      1 NMatT0=    0 NMatD0=    1 NMtDS0=    0 NMtDT0=    0
 Petite list used in FoFCou.
 Harris En= -1195.41448031418    
 JPrj=0 DoOrth=F DoCkMO=F.
 Leave Link  401 at Thu Jul 10 13:53:58 2025, MaxMem=  2684354560 cpu:               4.5 elap:               0.3
 (Enter /apps/gaussian/g16c01/g16/l502.exe)
 Keep R1 ints in memory in canonical form, NReq=30232002.
 FoFCou: FMM=F IPFlag=           0 FMFlag=           0 FMFlg1=           0
         NFxFlg=           0 DoJE=F BraDBF=F KetDBF=F FulRan=T
         wScrn=  0.000000 ICntrl=       600 IOpCl=  0 I1Cent=           0 NGrid=           0
         NMat0=    1 NMatS0=   4851 NMatT0=    0 NMatD0=    1 NMtDS0=    0 NMtDT0=    0
 Symmetry not used in FoFCou.
 Two-electron integral symmetry not used.
 Closed shell SCF:
 Using DIIS extrapolation, IDIIS=  1040.
 NGot=  2684354560 LenX=  2672563676 LenY=  2672553631
 Requested convergence on RMS density matrix=1.00D-08 within 128 cycles.
 Requested convergence on MAX density matrix=1.00D-06.
 Requested convergence on             energy=1.00D-06.
 No special actions if energy rises.

 Cycle   1  Pass 1  IDiag  1:
 Inv3:  Mode=1 IEnd=     2857728.
 Iteration    1 A*A^-1 deviation from unit magnitude is 3.22D-15 for    959.
 Iteration    1 A*A^-1 deviation from orthogonality  is 1.42D-15 for    976    975.
 Iteration    1 A^-1*A deviation from unit magnitude is 3.22D-15 for    959.
 Iteration    1 A^-1*A deviation from orthogonality  is 1.22D-15 for    976    975.
 E= -1196.11304379164    
 DIIS: error= 3.02D-02 at cycle   1 NSaved=   1.
 NSaved= 1 IEnMin= 1 EnMin= -1196.11304379164     IErMin= 1 ErrMin= 3.02D-02
 ErrMax= 3.02D-02  0.00D+00 EMaxC= 1.00D-01 BMatC= 7.70D-02 BMatP= 7.70D-02
 IDIUse=3 WtCom= 6.98D-01 WtEn= 3.02D-01
 Coeff-Com:  0.100D+01
 Coeff-En:   0.100D+01
 Coeff:      0.100D+01
 Gap=     0.354 Goal=   None    Shift=    0.000
 GapD=    0.354 DampG=1.000 DampE=0.500 DampFc=0.5000 IDamp=-1.
 Damping current iteration by 5.00D-01
 RMSDP=3.53D-03 MaxDP=8.36D-02              OVMax= 6.48D-02

 Cycle   2  Pass 1  IDiag  1:
 E= -1196.13267244564     Delta-E=       -0.019628653996 Rises=F Damp=T
 DIIS: error= 1.18D-02 at cycle   2 NSaved=   2.
 NSaved= 2 IEnMin= 2 EnMin= -1196.13267244564     IErMin= 2 ErrMin= 1.18D-02
 ErrMax= 1.18D-02  0.00D+00 EMaxC= 1.00D-01 BMatC= 1.04D-02 BMatP= 7.70D-02
 IDIUse=3 WtCom= 8.82D-01 WtEn= 1.18D-01
 Coeff-Com: -0.284D+00 0.128D+01
 Coeff-En:   0.000D+00 0.100D+01
 Coeff:     -0.250D+00 0.125D+01
 Gap=     0.363 Goal=   None    Shift=    0.000
 RMSDP=1.03D-03 MaxDP=1.15D-02 DE=-1.96D-02 OVMax= 3.20D-02

 Cycle   3  Pass 1  IDiag  1:
 E= -1196.15028829215     Delta-E=       -0.017615846509 Rises=F Damp=F
 DIIS: error= 4.24D-03 at cycle   3 NSaved=   3.
 NSaved= 3 IEnMin= 3 EnMin= -1196.15028829215     IErMin= 3 ErrMin= 4.24D-03
 ErrMax= 4.24D-03  0.00D+00 EMaxC= 1.00D-01 BMatC= 1.99D-03 BMatP= 1.04D-02
 IDIUse=3 WtCom= 9.58D-01 WtEn= 4.24D-02
 Coeff-Com: -0.186D+00 0.440D+00 0.746D+00
 Coeff-En:   0.000D+00 0.000D+00 0.100D+01
 Coeff:     -0.178D+00 0.422D+00 0.757D+00
 Gap=     0.357 Goal=   None    Shift=    0.000
 RMSDP=3.36D-04 MaxDP=6.61D-03 DE=-1.76D-02 OVMax= 5.84D-03

 Cycle   4  Pass 1  IDiag  1:
 E= -1196.15144277961     Delta-E=       -0.001154487464 Rises=F Damp=F
 DIIS: error= 9.94D-04 at cycle   4 NSaved=   4.
 NSaved= 4 IEnMin= 4 EnMin= -1196.15144277961     IErMin= 4 ErrMin= 9.94D-04
 ErrMax= 9.94D-04  0.00D+00 EMaxC= 1.00D-01 BMatC= 1.14D-04 BMatP= 1.99D-03
 IDIUse=3 WtCom= 9.90D-01 WtEn= 9.94D-03
 Coeff-Com: -0.633D-01 0.132D+00 0.312D+00 0.619D+00
 Coeff-En:   0.000D+00 0.000D+00 0.000D+00 0.100D+01
 Coeff:     -0.627D-01 0.131D+00 0.309D+00 0.623D+00
 Gap=     0.354 Goal=   None    Shift=    0.000
 RMSDP=1.13D-04 MaxDP=2.01D-03 DE=-1.15D-03 OVMax= 2.32D-03

 Cycle   5  Pass 1  IDiag  1:
 E= -1196.15152776525     Delta-E=       -0.000084985643 Rises=F Damp=F
 DIIS: error= 3.42D-04 at cycle   5 NSaved=   5.
 NSaved= 5 IEnMin= 5 EnMin= -1196.15152776525     IErMin= 5 ErrMin= 3.42D-04
 ErrMax= 3.42D-04  0.00D+00 EMaxC= 1.00D-01 BMatC= 7.98D-06 BMatP= 1.14D-04
 IDIUse=3 WtCom= 9.97D-01 WtEn= 3.42D-03
 Coeff-Com: -0.707D-02 0.101D-01 0.470D-01 0.249D+00 0.700D+00
 Coeff-En:   0.000D+00 0.000D+00 0.000D+00 0.000D+00 0.100D+01
 Coeff:     -0.705D-02 0.101D-01 0.468D-01 0.249D+00 0.701D+00
 Gap=     0.355 Goal=   None    Shift=    0.000
 RMSDP=3.60D-05 MaxDP=4.94D-04 DE=-8.50D-05 OVMax= 7.29D-04

 Cycle   6  Pass 1  IDiag  1:
 E= -1196.15153514158     Delta-E=       -0.000007376326 Rises=F Damp=F
 DIIS: error= 5.59D-05 at cycle   6 NSaved=   6.
 NSaved= 6 IEnMin= 6 EnMin= -1196.15153514158     IErMin= 6 ErrMin= 5.59D-05
 ErrMax= 5.59D-05  0.00D+00 EMaxC= 1.00D-01 BMatC= 1.60D-07 BMatP= 7.98D-06
 IDIUse=1 WtCom= 1.00D+00 WtEn= 0.00D+00
 Coeff-Com:  0.408D-02-0.893D-02-0.177D-01-0.138D-02 0.917D-01 0.932D+00
 Coeff:      0.408D-02-0.893D-02-0.177D-01-0.138D-02 0.917D-01 0.932D+00
 Gap=     0.355 Goal=   None    Shift=    0.000
 RMSDP=8.84D-06 MaxDP=2.17D-04 DE=-7.38D-06 OVMax= 2.30D-04

 Cycle   7  Pass 1  IDiag  1:
 E= -1196.15153541424     Delta-E=       -0.000000272659 Rises=F Damp=F
 DIIS: error= 7.90D-06 at cycle   7 NSaved=   7.
 NSaved= 7 IEnMin= 7 EnMin= -1196.15153541424     IErMin= 7 ErrMin= 7.90D-06
 ErrMax= 7.90D-06  0.00D+00 EMaxC= 1.00D-01 BMatC= 8.87D-09 BMatP= 1.60D-07
 IDIUse=1 WtCom= 1.00D+00 WtEn= 0.00D+00
 Coeff-Com:  0.873D-03-0.176D-02-0.509D-02-0.116D-01-0.251D-01 0.144D+00
 Coeff-Com:  0.898D+00
 Coeff:      0.873D-03-0.176D-02-0.509D-02-0.116D-01-0.251D-01 0.144D+00
 Coeff:      0.898D+00
 Gap=     0.355 Goal=   None    Shift=    0.000
 RMSDP=1.94D-06 MaxDP=3.10D-05 DE=-2.73D-07 OVMax= 4.37D-05

 Cycle   8  Pass 1  IDiag  1:
 E= -1196.15153542832     Delta-E=       -0.000000014083 Rises=F Damp=F
 DIIS: error= 1.74D-06 at cycle   8 NSaved=   8.
 NSaved= 8 IEnMin= 8 EnMin= -1196.15153542832     IErMin= 8 ErrMin= 1.74D-06
 ErrMax= 1.74D-06  0.00D+00 EMaxC= 1.00D-01 BMatC= 2.29D-10 BMatP= 8.87D-09
 IDIUse=1 WtCom= 1.00D+00 WtEn= 0.00D+00
 Coeff-Com: -0.170D-03 0.379D-03 0.741D-03 0.995D-04 0.130D-03-0.364D-01
 Coeff-Com: -0.359D-01 0.107D+01
 Coeff:     -0.170D-03 0.379D-03 0.741D-03 0.995D-04 0.130D-03-0.364D-01
 Coeff:     -0.359D-01 0.107D+01
 Gap=     0.355 Goal=   None    Shift=    0.000
 RMSDP=3.86D-07 MaxDP=5.06D-06 DE=-1.41D-08 OVMax= 9.43D-06

 Cycle   9  Pass 1  IDiag  1:
 E= -1196.15153542877     Delta-E=       -0.000000000444 Rises=F Damp=F
 DIIS: error= 1.94D-07 at cycle   9 NSaved=   9.
 NSaved= 9 IEnMin= 9 EnMin= -1196.15153542877     IErMin= 9 ErrMin= 1.94D-07
 ErrMax= 1.94D-07  0.00D+00 EMaxC= 1.00D-01 BMatC= 6.31D-12 BMatP= 2.29D-10
 IDIUse=1 WtCom= 1.00D+00 WtEn= 0.00D+00
 Coeff-Com: -0.405D-04 0.814D-04 0.222D-03 0.422D-03 0.114D-02-0.793D-02
 Coeff-Com: -0.334D-01 0.980D-01 0.942D+00
 Coeff:     -0.405D-04 0.814D-04 0.222D-03 0.422D-03 0.114D-02-0.793D-02
 Coeff:     -0.334D-01 0.980D-01 0.942D+00
 Gap=     0.355 Goal=   None    Shift=    0.000
 RMSDP=8.14D-08 MaxDP=1.82D-06 DE=-4.44D-10 OVMax= 1.99D-06

 Cycle  10  Pass 1  IDiag  1:
 E= -1196.15153542878     Delta-E=       -0.000000000011 Rises=F Damp=F
 DIIS: error= 6.85D-08 at cycle  10 NSaved=  10.
 NSaved=10 IEnMin=10 EnMin= -1196.15153542878     IErMin=10 ErrMin= 6.85D-08
 ErrMax= 6.85D-08  0.00D+00 EMaxC= 1.00D-01 BMatC= 3.85D-13 BMatP= 6.31D-12
 IDIUse=1 WtCom= 1.00D+00 WtEn= 0.00D+00
 Coeff-Com:  0.538D-05-0.121D-04-0.158D-04 0.325D-04 0.736D-04 0.950D-03
 Coeff-Com: -0.173D-02-0.451D-01 0.967D-01 0.949D+00
 Coeff:      0.538D-05-0.121D-04-0.158D-04 0.325D-04 0.736D-04 0.950D-03
 Coeff:     -0.173D-02-0.451D-01 0.967D-01 0.949D+00
 Gap=     0.355 Goal=   None    Shift=    0.000
 RMSDP=1.65D-08 MaxDP=2.42D-07 DE=-1.09D-11 OVMax= 4.31D-07

 Cycle  11  Pass 1  IDiag  1:
 E= -1196.15153542878     Delta-E=       -0.000000000003 Rises=F Damp=F
 DIIS: error= 8.83D-09 at cycle  11 NSaved=  11.
 NSaved=11 IEnMin=11 EnMin= -1196.15153542878     IErMin=11 ErrMin= 8.83D-09
 ErrMax= 8.83D-09  0.00D+00 EMaxC= 1.00D-01 BMatC= 6.65D-15 BMatP= 3.85D-13
 IDIUse=1 WtCom= 1.00D+00 WtEn= 0.00D+00
 Coeff-Com:  0.544D-06-0.971D-06-0.460D-05-0.140D-04-0.337D-04 0.145D-03
 Coeff-Com:  0.913D-03 0.213D-02-0.290D-01-0.109D+00 0.114D+01
 Coeff:      0.544D-06-0.971D-06-0.460D-05-0.140D-04-0.337D-04 0.145D-03
 Coeff:      0.913D-03 0.213D-02-0.290D-01-0.109D+00 0.114D+01
 Gap=     0.355 Goal=   None    Shift=    0.000
 RMSDP=3.98D-09 MaxDP=7.29D-08 DE=-2.73D-12 OVMax= 1.09D-07

 Error on total polarization charges =  0.00401
 SCF Done:  E(RM052X) =  -1196.15153543     A.U. after   11 cycles
            NFock= 11  Conv=0.40D-08     -V/T= 2.0040
 KE= 1.191364781197D+03 PE=-3.537579316726D+03 EE= 8.006365423760D+02
 SMD-CDS (non-electrostatic) energy       (kcal/mol) =       0.08
 (included in total energy above)
 Leave Link  502 at Thu Jul 10 13:54:02 2025, MaxMem=  2684354560 cpu:              70.5 elap:               3.8
 (Enter /apps/gaussian/g16c01/g16/l601.exe)
 Copying SCF densities to generalized density rwf, IOpCl= 0 IROHF=0.

 **********************************************************************

            Population analysis using the SCF Density.

 **********************************************************************

 Orbital symmetries:
       Occupied  (A) (A) (A) (A) (A) (A) (A) (A) (A) (A) (A) (A)
                 (A) (A) (A) (A) (A) (A) (A) (A) (A) (A) (A) (A)
                 (A) (A) (A) (A) (A) (A) (A) (A)
       Virtual   (A) (A) (A) (A) (A) (A) (A) (A) (A) (A) (A) (A)
                 (A) (A) (A) (A) (A) (A) (A) (A) (A) (A) (A) (A)
                 (A) (A) (A) (A) (A) (A) (A) (A) (A) (A) (A) (A)
                 (A) (A) (A) (A) (A) (A) (A) (A) (A) (A) (A) (A)
                 (A) (A) (A) (A) (A) (A) (A) (A) (A) (A) (A) (A)
                 (A) (A) (A) (A) (A) (A)
 The electronic state is 1-A.
 Alpha  occ. eigenvalues -- -102.80674-102.80674 -25.35802 -25.35802 -10.74610
 Alpha  occ. eigenvalues --  -10.74491  -9.85229  -9.85228  -7.57867  -7.57865
 Alpha  occ. eigenvalues --   -7.57189  -7.57189  -7.57183  -7.57182  -1.40888
 Alpha  occ. eigenvalues --   -1.40310  -1.02347  -0.99873  -0.86779  -0.73057
 Alpha  occ. eigenvalues --   -0.67679  -0.63965  -0.62289  -0.59116  -0.58818
 Alpha  occ. eigenvalues --   -0.53673  -0.48946  -0.45419  -0.43611  -0.42915
 Alpha  occ. eigenvalues --   -0.41242  -0.31608
 Alpha virt. eigenvalues --    0.03864   0.04233   0.10161   0.13399   0.24693
 Alpha virt. eigenvalues --    0.37339   0.39165   0.39795   0.45075   0.47253
 Alpha virt. eigenvalues --    0.47362   0.47893   0.47952   0.49101   0.57826
 Alpha virt. eigenvalues --    0.58566   0.63220   0.64996   0.73153   0.82701
 Alpha virt. eigenvalues --    0.86525   0.88485   0.89798   0.91026   0.93804
 Alpha virt. eigenvalues --    0.95367   0.97682   0.98783   1.08002   1.09749
 Alpha virt. eigenvalues --    1.12266   1.16344   1.23945   1.26798   1.33213
 Alpha virt. eigenvalues --    1.38207   1.43643   1.45927   1.50805   1.51656
 Alpha virt. eigenvalues --    1.68341   1.75855   1.80692   1.83136   1.89307
 Alpha virt. eigenvalues --    1.93594   1.95730   2.01842   2.03756   2.06970
 Alpha virt. eigenvalues --    2.13104   2.20786   2.35470   2.42093   2.54865
 Alpha virt. eigenvalues --    2.57110   2.81687   2.88614   3.09815   3.14418
 Alpha virt. eigenvalues --    4.06356   4.18453   4.33538   4.37691   4.75888
 Alpha virt. eigenvalues --    4.76070
          Condensed to atoms (all electrons):
               1          2          3          4          5          6
     1  C    5.009738   0.412117   0.284868   0.266777  -0.053567  -0.084309
     2  C    0.412117   5.009732  -0.053566  -0.084308   0.284870   0.266778
     3  F    0.284868  -0.053566   9.041727  -0.039632   0.000243   0.005249
     4  Cl   0.266777  -0.084308  -0.039632  16.773524   0.005249   0.003881
     5  F   -0.053567   0.284870   0.000243   0.005249   9.041722  -0.039632
     6  Cl  -0.084309   0.266778   0.005249   0.003881  -0.039632  16.773522
 Mulliken charges:
               1
     1  C    0.164376
     2  C    0.164378
     3  F   -0.238888
     4  Cl   0.074508
     5  F   -0.238885
     6  Cl   0.074511
 Sum of Mulliken charges =  -0.00000
 Mulliken charges with hydrogens summed into heavy atoms:
               1
     1  C    0.164376
     2  C    0.164378
     3  F   -0.238888
     4  Cl   0.074508
     5  F   -0.238885
     6  Cl   0.074511
 Electronic spatial extent (au):  <R**2>=            887.0853
 Charge=             -0.0000 electrons
 Dipole moment (field-independent basis, Debye):
    X=              0.0000    Y=              0.0000    Z=              0.0003  Tot=              0.0003
 Quadrupole moment (field-independent basis, Debye-Ang):
   XX=            -43.6796   YY=            -47.3360   ZZ=            -45.1088
   XY=             -1.0145   XZ=              0.0000   YZ=             -0.0001
 Traceless Quadrupole moment (field-independent basis, Debye-Ang):
   XX=              1.6952   YY=             -1.9612   ZZ=              0.2660
   XY=             -1.0145   XZ=              0.0000   YZ=             -0.0001
 Octapole moment (field-independent basis, Debye-Ang**2):
  XXX=              0.0001  YYY=              0.0001  ZZZ=             -0.0025  XYY=              0.0001
  XXY=             -0.0000  XXZ=             -0.0035  XZZ=              0.0000  YZZ=              0.0000
  YYZ=             -0.0006  XYZ=              0.0009
 Hexadecapole moment (field-independent basis, Debye-Ang**3):
 XXXX=           -702.3536 YYYY=           -226.7938 ZZZZ=            -43.3260 XXXY=             -9.3185
 XXXZ=              0.0053 YYYX=              4.9078 YYYZ=             -0.0009 ZZZX=              0.0047
 ZZZY=             -0.0011 XXYY=           -161.3317 XXZZ=           -136.4342 YYZZ=            -43.7533
 XXYZ=             -0.0005 YYXZ=              0.0015 ZZXY=              3.1101
 N-N= 3.494264577236D+02 E-N=-3.537579316778D+03  KE= 1.191364781197D+03
 No NMR shielding tensors so no spin-rotation constants.
 Leave Link  601 at Thu Jul 10 13:54:04 2025, MaxMem=  2684354560 cpu:              18.6 elap:               1.8
 (Enter /apps/gaussian/g16c01/g16/l9999.exe)
 Unable to Open any file for archive entry.
 1\1\GINC-GADI-CPU-CLX-0504\SP\RM052X\6-31G(d)\C2Cl2F2\YR9300\10-Jul-20
 25\0\\#P M052X/6-31G* scrf(SMD,solvent=n-octanol)\\Cl2F2_oct_M05-2x\\0
 ,1\C,0,-0.539889,0.386348,-0.000312\C,0,0.539895,-0.386353,-0.000211\F
 ,0,-0.449145,1.71273,0.000086\Cl,0,-2.146408,-0.224037,0.000035\F,0,0.
 449146,-1.71273,0.000034\Cl,0,2.146406,0.224039,0.000085\\Version=ES64
 L-G16RevC.01\State=1-A\HF=-1196.1515354\RMSD=3.983e-09\Dipole=0.000014
 7,-0.0000096,-0.0001289\Quadrupole=1.2603304,-1.4580809,0.1977505,0.75
 42536,-0.0000204,-0.0000899\PG=C01 [X(C2Cl2F2)]\\@
 The archive entry for this job was punched.


 WE MIGHT AS WELL ATTEMPT TO INTRODUCE A NEW PLANET 
 INTO THE SOLAR SYSTEM, OR TO ANNIHILATE ONE ALREADYIN EXISTENCE, 
 AS TO CREATE OR DESTROY A PARTICLE OF HYDROGEN.
 ALL THE CHANGES WE CAN PRODUCE CONSIST IN SEPARATING PARTICLES
 THAT ARE IN A STATE OF ... COMBINATION, AND JOINING 
 THOSE THAT WERE PREVIOUSLY AT A DISTANCE.

                                    -- JOHN DALTON, 1810
 Job cpu time:       0 days  0 hours  1 minutes 54.5 seconds.
 Elapsed time:       0 days  0 hours  0 minutes  7.1 seconds.
 File lengths (MBytes):  RWF=     23 Int=      0 D2E=      0 Chk=      2 Scr=      1
 Normal termination of Gaussian 16 at Thu Jul 10 13:54:04 2025.
