 Entering Gaussian System, Link 0=g16
 Initial command:
 /apps/gaussian/g16c01/g16/l1.exe "/jobfs/145006015.gadi-pbs/Gau-3616053.inp" -scrdir="/jobfs/145006015.gadi-pbs/"
 Entering Link 1 = /apps/gaussian/g16c01/g16/l1.exe PID=   3616054.
  
 Copyright (c) 1988-2019, Gaussian, Inc.  All Rights Reserved.
  
 This is part of the Gaussian(R) 16 program.  It is based on
 the Gaussian(R) 09 system (copyright 2009, Gaussian, Inc.),
 the Gaussian(R) 03 system (copyright 2003, Gaussian, Inc.),
 the Gaussian(R) 98 system (copyright 1998, Gaussian, Inc.),
 the Gaussian(R) 94 system (copyright 1995, Gaussian, Inc.),
 the Gaussian 92(TM) system (copyright 1992, Gaussian, Inc.),
 the Gaussian 90(TM) system (copyright 1990, Gaussian, Inc.),
 the Gaussian 88(TM) system (copyright 1988, Gaussian, Inc.),
 the Gaussian 86(TM) system (copyright 1986, Carnegie Mellon
 University), and the Gaussian 82(TM) system (copyright 1983,
 Carnegie Mellon University). Gaussian is a federally registered
 trademark of Gaussian, Inc.
  
 This software contains proprietary and confidential information,
 including trade secrets, belonging to Gaussian, Inc.
  
 This software is provided under written license and may be
 used, copied, transmitted, or stored only in accord with that
 written license.
  
 The following legend is applicable only to US Government
 contracts under FAR:
  
                    RESTRICTED RIGHTS LEGEND
  
 Use, reproduction and disclosure by the US Government is
 subject to restrictions as set forth in subparagraphs (a)
 and (c) of the Commercial Computer Software - Restricted
 Rights clause in FAR 52.227-19.
  
 Gaussian, Inc.
 340 Quinnipiac St., Bldg. 40, Wallingford CT 06492
  
  
 ---------------------------------------------------------------
 Warning -- This program may not be used in any manner that
 competes with the business of Gaussian, Inc. or will provide
 assistance to any competitor of Gaussian, Inc.  The licensee
 of this program is prohibited from giving any competitor of
 Gaussian, Inc. access to this program.  By using this program,
 the user acknowledges that Gaussian, Inc. is engaged in the
 business of creating and licensing software in the field of
 computational chemistry and represents and warrants to the
 licensee that it is not a competitor of Gaussian, Inc. and that
 it will not use this program in any manner prohibited above.
 ---------------------------------------------------------------
  

 Cite this work as:
 Gaussian 16, Revision C.01,
 M. J. Frisch, G. W. Trucks, H. B. Schlegel, G. E. Scuseria, 
 M. A. Robb, J. R. Cheeseman, G. Scalmani, V. Barone, 
 G. A. Petersson, H. Nakatsuji, X. Li, M. Caricato, A. V. Marenich, 
 J. Bloino, B. G. Janesko, R. Gomperts, B. Mennucci, H. P. Hratchian, 
 J. V. Ortiz, A. F. Izmaylov, J. L. Sonnenberg, D. Williams-Young, 
 F. Ding, F. Lipparini, F. Egidi, J. Goings, B. Peng, A. Petrone, 
 T. Henderson, D. Ranasinghe, V. G. Zakrzewski, J. Gao, N. Rega, 
 G. Zheng, W. Liang, M. Hada, M. Ehara, K. Toyota, R. Fukuda, 
 J. Hasegawa, M. Ishida, T. Nakajima, Y. Honda, O. Kitao, H. Nakai, 
 T. Vreven, K. Throssell, J. A. Montgomery, Jr., J. E. Peralta, 
 F. Ogliaro, M. J. Bearpark, J. J. Heyd, E. N. Brothers, K. N. Kudin, 
 V. N. Staroverov, T. A. Keith, R. Kobayashi, J. Normand, 
 K. Raghavachari, A. P. Rendell, J. C. Burant, S. S. Iyengar, 
 J. Tomasi, M. Cossi, J. M. Millam, M. Klene, C. Adamo, R. Cammi, 
 J. W. Ochterski, R. L. Martin, K. Morokuma, O. Farkas, 
 J. B. Foresman, and D. J. Fox, Gaussian, Inc., Wallingford CT, 2019.
 
 ******************************************
 Gaussian 16:  ES64L-G16RevC.01  3-Jul-2019
                10-Jul-2025 
 ******************************************
 %chk=F4_oct_vaccum_M05-2x.chk
 %mem=20GB
 %nprocshared=20
 Will use up to   20 processors via shared memory.
 ---------------
 #P M052X/6-31G*
 ---------------
 1/38=1,172=1/1;
 2/12=2,17=6,18=5,40=1/2;
 3/5=1,6=6,7=1,11=2,25=1,30=1,74=-38/1,2,3;
 4//1;
 5/5=2,38=5/2;
 6/7=2,8=2,9=2,10=2,28=1/1;
 99/5=1,9=1/99;
 Leave Link    1 at Thu Jul 10 14:10:25 2025, MaxMem=  2684354560 cpu:               1.6 elap:               0.1
 (Enter /apps/gaussian/g16c01/g16/l101.exe)
 --------------------
 F4_oct_vaccum_M05-2x
 --------------------
 Symbolic Z-matrix:
 Charge =  0 Multiplicity = 1
 C                    -0.65976   0.        0. 
 C                     0.65976   0.       -0.00001 
 F                    -1.38655  -1.10369  -0.00001 
 F                    -1.38655   1.10369   0.00003 
 F                     1.38655   1.10369   0.00001 
 F                     1.38655  -1.10369  -0.00003 
 
 ITRead=  0  0  0  0  0  0
 MicOpt= -1 -1 -1 -1 -1 -1
 NAtoms=      6 NQM=        6 NQMF=       0 NMMI=      0 NMMIF=      0
                NMic=       0 NMicF=      0.
                    Isotopes and Nuclear Properties:
 (Nuclear quadrupole moments (NQMom) in fm**2, nuclear magnetic moments (NMagM)
  in nuclear magnetons)

  Atom         1           2           3           4           5           6
 IAtWgt=          12          12          19          19          19          19
 AtmWgt=  12.0000000  12.0000000  18.9984033  18.9984033  18.9984033  18.9984033
 NucSpn=           0           0           1           1           1           1
 AtZEff=  -0.0000000  -0.0000000  -0.0000000  -0.0000000  -0.0000000  -0.0000000
 NQMom=    0.0000000   0.0000000   0.0000000   0.0000000   0.0000000   0.0000000
 NMagM=    0.0000000   0.0000000   2.6288670   2.6288670   2.6288670   2.6288670
 AtZNuc=   6.0000000   6.0000000   9.0000000   9.0000000   9.0000000   9.0000000
 Leave Link  101 at Thu Jul 10 14:10:25 2025, MaxMem=  2684354560 cpu:               1.4 elap:               0.2
 (Enter /apps/gaussian/g16c01/g16/l202.exe)
                          Input orientation:                          
 ---------------------------------------------------------------------
 Center     Atomic      Atomic             Coordinates (Angstroms)
 Number     Number       Type             X           Y           Z
 ---------------------------------------------------------------------
      1          6           0       -0.659758    0.000000    0.000002
      2          6           0        0.659758    0.000000   -0.000005
      3          9           0       -1.386550   -1.103688   -0.000012
      4          9           0       -1.386550    1.103687    0.000028
      5          9           0        1.386550    1.103688    0.000013
      6          9           0        1.386550   -1.103687   -0.000027
 ---------------------------------------------------------------------
                    Distance matrix (angstroms):
                    1          2          3          4          5
     1  C    0.000000
     2  C    1.319516   0.000000
     3  F    1.321497   2.324974   0.000000
     4  F    1.321496   2.324973   2.207375   0.000000
     5  F    2.324974   1.321497   3.544375   2.773100   0.000000
     6  F    2.324973   1.321496   2.773100   3.544374   2.207375
                    6
     6  F    0.000000
 Stoichiometry    C2F4
 Framework group  C1[X(C2F4)]
 Deg. of freedom    12
 Full point group                 C1      NOp   1
 Largest Abelian subgroup         C1      NOp   1
 Largest concise Abelian subgroup C1      NOp   1
                         Standard orientation:                         
 ---------------------------------------------------------------------
 Center     Atomic      Atomic             Coordinates (Angstroms)
 Number     Number       Type             X           Y           Z
 ---------------------------------------------------------------------
      1          6           0       -0.659758    0.000001    0.000002
      2          6           0        0.659758   -0.000001   -0.000005
      3          9           0       -1.386551   -1.103687   -0.000012
      4          9           0       -1.386549    1.103688    0.000028
      5          9           0        1.386551    1.103687    0.000013
      6          9           0        1.386549   -1.103688   -0.000027
 ---------------------------------------------------------------------
 Rotational constants (GHZ):           5.4594370           3.2283090           2.0286907
 Leave Link  202 at Thu Jul 10 14:10:25 2025, MaxMem=  2684354560 cpu:               1.1 elap:               0.1
 (Enter /apps/gaussian/g16c01/g16/l301.exe)
 Standard basis: 6-31G(d) (6D, 7F)
 Ernie: Thresh=  0.10000D-02 Tol=  0.10000D-05 Strict=F.
 There are    90 symmetry adapted cartesian basis functions of A   symmetry.
 There are    90 symmetry adapted basis functions of A   symmetry.
    90 basis functions,   168 primitive gaussians,    90 cartesian basis functions
    24 alpha electrons       24 beta electrons
       nuclear repulsion energy       244.0316750207 Hartrees.
 IExCor= 3428 DFT=T Ex+Corr=M052X ExCW=0 ScaHFX=  0.560000
 ScaDFX=  0.440000  0.440000  1.000000  1.000000 ScalE2=  1.000000  1.000000
 IRadAn=      5 IRanWt=     -1 IRanGd=            0 ICorTp=0 IEmpDi=  4
 NAtoms=    6 NActive=    6 NUniq=    6 SFac= 1.00D+00 NAtFMM=   60 NAOKFM=F Big=F
 Integral buffers will be    131072 words long.
 Raffenetti 2 integral format.
 Two-electron integral symmetry is turned on.
 Leave Link  301 at Thu Jul 10 14:10:25 2025, MaxMem=  2684354560 cpu:               0.9 elap:               0.1
 (Enter /apps/gaussian/g16c01/g16/l302.exe)
 NPDir=0 NMtPBC=     1 NCelOv=     1 NCel=       1 NClECP=     1 NCelD=      1
         NCelK=      1 NCelE2=     1 NClLst=     1 CellRange=     0.0.
 One-electron integrals computed using PRISM.
 One-electron integral symmetry used in STVInt
 NBasis=    90 RedAO= T EigKep=  1.82D-03  NBF=    90
 NBsUse=    90 1.00D-06 EigRej= -1.00D+00 NBFU=    90
 Precomputing XC quadrature grid using
 IXCGrd= 4 IRadAn=           5 IRanWt=          -1 IRanGd=           0 AccXCQ= 0.00D+00.
 Generated NRdTot=       0 NPtTot=           0 NUsed=           0 NTot=          32
 NSgBfM=    90    90    90    90    90 MxSgAt=     6 MxSgA2=     6.
 Leave Link  302 at Thu Jul 10 14:10:26 2025, MaxMem=  2684354560 cpu:               3.0 elap:               0.2
 (Enter /apps/gaussian/g16c01/g16/l303.exe)
 DipDrv:  MaxL=1.
 Leave Link  303 at Thu Jul 10 14:10:26 2025, MaxMem=  2684354560 cpu:               2.9 elap:               0.3
 (Enter /apps/gaussian/g16c01/g16/l401.exe)
 ExpMin= 1.69D-01 ExpMax= 7.00D+03 ExpMxC= 1.05D+03 IAcc=3 IRadAn=         5 AccDes= 0.00D+00
 Harris functional with IExCor= 1009 and IRadAn=       5 diagonalized for initial guess.
 HarFok:  IExCor= 1009 AccDes= 0.00D+00 IRadAn=         5 IDoV= 1 UseB2=F ITyADJ=14
 ICtDFT=  3500011 ScaDFX=  1.000000  1.000000  1.000000  1.000000
 FoFCou: FMM=F IPFlag=           0 FMFlag=      100000 FMFlg1=           0
         NFxFlg=           0 DoJE=T BraDBF=F KetDBF=T FulRan=T
         wScrn=  0.000000 ICntrl=       500 IOpCl=  0 I1Cent=   200000004 NGrid=           0
         NMat0=    1 NMatS0=      1 NMatT0=    0 NMatD0=    1 NMtDS0=    0 NMtDT0=    0
 Petite list used in FoFCou.
 Harris En= -475.040615263327    
 JPrj=0 DoOrth=F DoCkMO=F.
 Leave Link  401 at Thu Jul 10 14:10:26 2025, MaxMem=  2684354560 cpu:               5.0 elap:               0.4
 (Enter /apps/gaussian/g16c01/g16/l502.exe)
 Keep R1 ints in memory in canonical form, NReq=26684246.
 FoFCou: FMM=F IPFlag=           0 FMFlag=           0 FMFlg1=           0
         NFxFlg=           0 DoJE=F BraDBF=F KetDBF=F FulRan=T
         wScrn=  0.000000 ICntrl=       600 IOpCl=  0 I1Cent=           0 NGrid=           0
         NMat0=    1 NMatS0=   4095 NMatT0=    0 NMatD0=    1 NMtDS0=    0 NMtDT0=    0
 Symmetry not used in FoFCou.
 Two-electron integral symmetry not used.
 Closed shell SCF:
 Using DIIS extrapolation, IDIIS=  1040.
 NGot=  2684354560 LenX=  2675948868 LenY=  2675940327
 Requested convergence on RMS density matrix=1.00D-08 within 128 cycles.
 Requested convergence on MAX density matrix=1.00D-06.
 Requested convergence on             energy=1.00D-06.
 No special actions if energy rises.
 Integral accuracy reduced to 1.0D-05 until final iterations.

 Cycle   1  Pass 0  IDiag  1:
 E= -475.430134673802    
 DIIS: error= 2.01D-02 at cycle   1 NSaved=   1.
 NSaved= 1 IEnMin= 1 EnMin= -475.430134673802     IErMin= 1 ErrMin= 2.01D-02
 ErrMax= 2.01D-02  0.00D+00 EMaxC= 1.00D-01 BMatC= 6.40D-02 BMatP= 6.40D-02
 IDIUse=3 WtCom= 7.99D-01 WtEn= 2.01D-01
 Coeff-Com:  0.100D+01
 Coeff-En:   0.100D+01
 Coeff:      0.100D+01
 Gap=     0.394 Goal=   None    Shift=    0.000
 GapD=    0.394 DampG=1.000 DampE=0.500 DampFc=0.5000 IDamp=-1.
 Damping current iteration by 5.00D-01
 RMSDP=2.43D-03 MaxDP=3.30D-02              OVMax= 3.48D-02

 Cycle   2  Pass 0  IDiag  1:
 E= -475.444241225148     Delta-E=       -0.014106551347 Rises=F Damp=T
 DIIS: error= 1.04D-02 at cycle   2 NSaved=   2.
 NSaved= 2 IEnMin= 2 EnMin= -475.444241225148     IErMin= 2 ErrMin= 1.04D-02
 ErrMax= 1.04D-02  0.00D+00 EMaxC= 1.00D-01 BMatC= 9.04D-03 BMatP= 6.40D-02
 IDIUse=3 WtCom= 8.96D-01 WtEn= 1.04D-01
 Coeff-Com: -0.235D+00 0.124D+01
 Coeff-En:   0.000D+00 0.100D+01
 Coeff:     -0.211D+00 0.121D+01
 Gap=     0.405 Goal=   None    Shift=    0.000
 RMSDP=9.65D-04 MaxDP=1.25D-02 DE=-1.41D-02 OVMax= 3.26D-02

 Cycle   3  Pass 0  IDiag  1:
 E= -475.457229533087     Delta-E=       -0.012988307939 Rises=F Damp=F
 DIIS: error= 4.56D-03 at cycle   3 NSaved=   3.
 NSaved= 3 IEnMin= 3 EnMin= -475.457229533087     IErMin= 3 ErrMin= 4.56D-03
 ErrMax= 4.56D-03  0.00D+00 EMaxC= 1.00D-01 BMatC= 2.78D-03 BMatP= 9.04D-03
 IDIUse=3 WtCom= 9.54D-01 WtEn= 4.56D-02
 Coeff-Com: -0.217D+00 0.487D+00 0.731D+00
 Coeff-En:   0.000D+00 0.000D+00 0.100D+01
 Coeff:     -0.207D+00 0.464D+00 0.743D+00
 Gap=     0.403 Goal=   None    Shift=    0.000
 RMSDP=3.79D-04 MaxDP=5.52D-03 DE=-1.30D-02 OVMax= 8.03D-03

 Cycle   4  Pass 0  IDiag  1:
 E= -475.458943178523     Delta-E=       -0.001713645436 Rises=F Damp=F
 DIIS: error= 8.41D-04 at cycle   4 NSaved=   4.
 NSaved= 4 IEnMin= 4 EnMin= -475.458943178523     IErMin= 4 ErrMin= 8.41D-04
 ErrMax= 8.41D-04  0.00D+00 EMaxC= 1.00D-01 BMatC= 4.14D-05 BMatP= 2.78D-03
 IDIUse=3 WtCom= 9.92D-01 WtEn= 8.41D-03
 Coeff-Com: -0.347D-01 0.675D-01 0.184D+00 0.784D+00
 Coeff-En:   0.000D+00 0.000D+00 0.000D+00 0.100D+01
 Coeff:     -0.344D-01 0.669D-01 0.182D+00 0.786D+00
 Gap=     0.403 Goal=   None    Shift=    0.000
 RMSDP=6.38D-05 MaxDP=1.16D-03 DE=-1.71D-03 OVMax= 1.78D-03

 Cycle   5  Pass 0  IDiag  1:
 E= -475.458979920649     Delta-E=       -0.000036742125 Rises=F Damp=F
 DIIS: error= 1.57D-04 at cycle   5 NSaved=   5.
 NSaved= 5 IEnMin= 5 EnMin= -475.458979920649     IErMin= 5 ErrMin= 1.57D-04
 ErrMax= 1.57D-04  0.00D+00 EMaxC= 1.00D-01 BMatC= 1.30D-06 BMatP= 4.14D-05
 IDIUse=3 WtCom= 9.98D-01 WtEn= 1.57D-03
 Coeff-Com: -0.449D-03-0.183D-02-0.139D-03 0.128D+00 0.874D+00
 Coeff-En:   0.000D+00 0.000D+00 0.000D+00 0.000D+00 0.100D+01
 Coeff:     -0.448D-03-0.182D-02-0.139D-03 0.128D+00 0.874D+00
 Gap=     0.403 Goal=   None    Shift=    0.000
 RMSDP=9.81D-06 MaxDP=1.68D-04 DE=-3.67D-05 OVMax= 2.06D-04

 Initial convergence to 1.0D-05 achieved.  Increase integral accuracy.
 Cycle   6  Pass 1  IDiag  1:
 E= -475.458923093409     Delta-E=        0.000056827240 Rises=F Damp=F
 DIIS: error= 4.95D-05 at cycle   1 NSaved=   1.
 NSaved= 1 IEnMin= 1 EnMin= -475.458923093409     IErMin= 1 ErrMin= 4.95D-05
 ErrMax= 4.95D-05  0.00D+00 EMaxC= 1.00D-01 BMatC= 2.05D-07 BMatP= 2.05D-07
 IDIUse=1 WtCom= 1.00D+00 WtEn= 0.00D+00
 Coeff-Com:  0.100D+01
 Coeff:      0.100D+01
 Gap=     0.403 Goal=   None    Shift=    0.000
 RMSDP=9.81D-06 MaxDP=1.68D-04 DE= 5.68D-05 OVMax= 9.27D-05

 Cycle   7  Pass 1  IDiag  1:
 E= -475.458923235613     Delta-E=       -0.000000142204 Rises=F Damp=F
 DIIS: error= 2.25D-05 at cycle   2 NSaved=   2.
 NSaved= 2 IEnMin= 2 EnMin= -475.458923235613     IErMin= 2 ErrMin= 2.25D-05
 ErrMax= 2.25D-05  0.00D+00 EMaxC= 1.00D-01 BMatC= 4.60D-08 BMatP= 2.05D-07
 IDIUse=1 WtCom= 1.00D+00 WtEn= 0.00D+00
 Coeff-Com:  0.266D+00 0.734D+00
 Coeff:      0.266D+00 0.734D+00
 Gap=     0.403 Goal=   None    Shift=    0.000
 RMSDP=2.73D-06 MaxDP=4.18D-05 DE=-1.42D-07 OVMax= 5.40D-05

 Cycle   8  Pass 1  IDiag  1:
 E= -475.458923256315     Delta-E=       -0.000000020702 Rises=F Damp=F
 DIIS: error= 1.12D-05 at cycle   3 NSaved=   3.
 NSaved= 3 IEnMin= 3 EnMin= -475.458923256315     IErMin= 3 ErrMin= 1.12D-05
 ErrMax= 1.12D-05  0.00D+00 EMaxC= 1.00D-01 BMatC= 1.69D-08 BMatP= 4.60D-08
 IDIUse=1 WtCom= 1.00D+00 WtEn= 0.00D+00
 Coeff-Com: -0.524D-01 0.354D+00 0.698D+00
 Coeff:     -0.524D-01 0.354D+00 0.698D+00
 Gap=     0.403 Goal=   None    Shift=    0.000
 RMSDP=8.21D-07 MaxDP=1.10D-05 DE=-2.07D-08 OVMax= 1.57D-05

 Cycle   9  Pass 1  IDiag  1:
 E= -475.458923266434     Delta-E=       -0.000000010119 Rises=F Damp=F
 DIIS: error= 1.32D-06 at cycle   4 NSaved=   4.
 NSaved= 4 IEnMin= 4 EnMin= -475.458923266434     IErMin= 4 ErrMin= 1.32D-06
 ErrMax= 1.32D-06  0.00D+00 EMaxC= 1.00D-01 BMatC= 9.01D-11 BMatP= 1.69D-08
 IDIUse=1 WtCom= 1.00D+00 WtEn= 0.00D+00
 Coeff-Com: -0.150D-01 0.543D-01 0.143D+00 0.818D+00
 Coeff:     -0.150D-01 0.543D-01 0.143D+00 0.818D+00
 Gap=     0.403 Goal=   None    Shift=    0.000
 RMSDP=1.22D-07 MaxDP=1.88D-06 DE=-1.01D-08 OVMax= 2.56D-06

 Cycle  10  Pass 1  IDiag  1:
 E= -475.458923266529     Delta-E=       -0.000000000095 Rises=F Damp=F
 DIIS: error= 2.69D-07 at cycle   5 NSaved=   5.
 NSaved= 5 IEnMin= 5 EnMin= -475.458923266529     IErMin= 5 ErrMin= 2.69D-07
 ErrMax= 2.69D-07  0.00D+00 EMaxC= 1.00D-01 BMatC= 4.61D-12 BMatP= 9.01D-11
 IDIUse=1 WtCom= 1.00D+00 WtEn= 0.00D+00
 Coeff-Com:  0.163D-02-0.155D-01-0.321D-01 0.755D-01 0.970D+00
 Coeff:      0.163D-02-0.155D-01-0.321D-01 0.755D-01 0.970D+00
 Gap=     0.403 Goal=   None    Shift=    0.000
 RMSDP=3.62D-08 MaxDP=3.36D-07 DE=-9.46D-11 OVMax= 8.74D-07

 Cycle  11  Pass 1  IDiag  1:
 E= -475.458923266533     Delta-E=       -0.000000000005 Rises=F Damp=F
 DIIS: error= 5.61D-08 at cycle   6 NSaved=   6.
 NSaved= 6 IEnMin= 6 EnMin= -475.458923266533     IErMin= 6 ErrMin= 5.61D-08
 ErrMax= 5.61D-08  0.00D+00 EMaxC= 1.00D-01 BMatC= 1.23D-13 BMatP= 4.61D-12
 IDIUse=1 WtCom= 1.00D+00 WtEn= 0.00D+00
 Coeff-Com:  0.651D-03-0.386D-02-0.832D-02-0.181D-01 0.133D+00 0.896D+00
 Coeff:      0.651D-03-0.386D-02-0.832D-02-0.181D-01 0.133D+00 0.896D+00
 Gap=     0.403 Goal=   None    Shift=    0.000
 RMSDP=4.88D-09 MaxDP=5.41D-08 DE=-4.55D-12 OVMax= 1.65D-07

 SCF Done:  E(RM052X) =  -475.458923267     A.U. after   11 cycles
            NFock= 11  Conv=0.49D-08     -V/T= 2.0071
 KE= 4.721071676571D+02 PE=-1.615969280429D+03 EE= 4.243715144842D+02
 Leave Link  502 at Thu Jul 10 14:10:28 2025, MaxMem=  2684354560 cpu:              26.8 elap:               1.5
 (Enter /apps/gaussian/g16c01/g16/l601.exe)
 Copying SCF densities to generalized density rwf, IOpCl= 0 IROHF=0.

 **********************************************************************

            Population analysis using the SCF Density.

 **********************************************************************

 Orbital symmetries:
       Occupied  (A) (A) (A) (A) (A) (A) (A) (A) (A) (A) (A) (A)
                 (A) (A) (A) (A) (A) (A) (A) (A) (A) (A) (A) (A)
       Virtual   (A) (A) (A) (A) (A) (A) (A) (A) (A) (A) (A) (A)
                 (A) (A) (A) (A) (A) (A) (A) (A) (A) (A) (A) (A)
                 (A) (A) (A) (A) (A) (A) (A) (A) (A) (A) (A) (A)
                 (A) (A) (A) (A) (A) (A) (A) (A) (A) (A) (A) (A)
                 (A) (A) (A) (A) (A) (A) (A) (A) (A) (A) (A) (A)
                 (A) (A) (A) (A) (A) (A)
 The electronic state is 1-A.
 Alpha  occ. eigenvalues --  -25.36164 -25.36164 -25.36163 -25.36163 -10.77127
 Alpha  occ. eigenvalues --  -10.77005  -1.44881  -1.43253  -1.38657  -1.37483
 Alpha  occ. eigenvalues --   -0.92213  -0.76548  -0.71849  -0.70753  -0.66129
 Alpha  occ. eigenvalues --   -0.65756  -0.61625  -0.58839  -0.56401  -0.55839
 Alpha  occ. eigenvalues --   -0.55045  -0.53857  -0.53221  -0.32400
 Alpha virt. eigenvalues --    0.07887   0.12310   0.19200   0.20650   0.45459
 Alpha virt. eigenvalues --    0.48756   0.53706   0.53805   0.55816   0.60580
 Alpha virt. eigenvalues --    0.63151   0.66025   0.67948   1.00341   1.12638
 Alpha virt. eigenvalues --    1.13675   1.16910   1.19012   1.23753   1.26227
 Alpha virt. eigenvalues --    1.30110   1.35582   1.39192   1.41144   1.42668
 Alpha virt. eigenvalues --    1.43068   1.45645   1.51007   1.51901   1.54249
 Alpha virt. eigenvalues --    1.68134   1.77190   1.77882   1.80873   1.84113
 Alpha virt. eigenvalues --    1.87860   1.88758   1.88841   1.95876   1.99162
 Alpha virt. eigenvalues --    1.99677   1.99740   2.00601   2.02087   2.02591
 Alpha virt. eigenvalues --    2.12334   2.24916   2.32958   2.34404   2.42894
 Alpha virt. eigenvalues --    2.43770   2.72519   2.73021   2.77233   2.80981
 Alpha virt. eigenvalues --    3.03103   3.04482   3.11962   3.31217   3.35804
 Alpha virt. eigenvalues --    4.00171   4.29415   4.34706   4.65968   5.19243
 Alpha virt. eigenvalues --    6.20646
          Condensed to atoms (all electrons):
               1          2          3          4          5          6
     1  C    4.591648   0.409793   0.310372   0.310373  -0.052530  -0.052530
     2  C    0.409793   4.591648  -0.052530  -0.052530   0.310372   0.310373
     3  F    0.310372  -0.052530   9.018920  -0.035830   0.000249   0.000257
     4  F    0.310373  -0.052530  -0.035830   9.018919   0.000257   0.000249
     5  F   -0.052530   0.310372   0.000249   0.000257   9.018920  -0.035830
     6  F   -0.052530   0.310373   0.000257   0.000249  -0.035830   9.018919
 Mulliken charges:
               1
     1  C    0.482875
     2  C    0.482875
     3  F   -0.241438
     4  F   -0.241437
     5  F   -0.241438
     6  F   -0.241437
 Sum of Mulliken charges =  -0.00000
 Mulliken charges with hydrogens summed into heavy atoms:
               1
     1  C    0.482875
     2  C    0.482875
     3  F   -0.241438
     4  F   -0.241437
     5  F   -0.241438
     6  F   -0.241437
 Electronic spatial extent (au):  <R**2>=            490.3647
 Charge=             -0.0000 electrons
 Dipole moment (field-independent basis, Debye):
    X=              0.0000    Y=             -0.0000    Z=             -0.0000  Tot=              0.0000
 Quadrupole moment (field-independent basis, Debye-Ang):
   XX=            -31.4266   YY=            -31.3304   ZZ=            -28.6452
   XY=             -0.0000   XZ=              0.0000   YZ=             -0.0000
 Traceless Quadrupole moment (field-independent basis, Debye-Ang):
   XX=             -0.9592   YY=             -0.8630   ZZ=              1.8222
   XY=             -0.0000   XZ=              0.0000   YZ=             -0.0000
 Octapole moment (field-independent basis, Debye-Ang**2):
  XXX=              0.0000  YYY=             -0.0000  ZZZ=              0.0000  XYY=              0.0000
  XXY=             -0.0000  XXZ=              0.0000  XZZ=              0.0000  YZZ=             -0.0000
  YYZ=              0.0000  XYZ=              0.0000
 Hexadecapole moment (field-independent basis, Debye-Ang**3):
 XXXX=           -264.8742 YYYY=           -153.9966 ZZZZ=            -19.8069 XXXY=             -0.0000
 XXXZ=              0.0007 YYYX=             -0.0000 YYYZ=             -0.0012 ZZZX=              0.0006
 ZZZY=             -0.0012 XXYY=            -72.4212 XXZZ=            -45.8455 YYZZ=            -28.8558
 XXYZ=             -0.0005 YYXZ=              0.0002 ZZXY=             -0.0000
 N-N= 2.440316750207D+02 E-N=-1.615969278318D+03  KE= 4.721071676571D+02
 No NMR shielding tensors so no spin-rotation constants.
 Leave Link  601 at Thu Jul 10 14:10:28 2025, MaxMem=  2684354560 cpu:              11.2 elap:               0.6
 (Enter /apps/gaussian/g16c01/g16/l9999.exe)
 Unable to Open any file for archive entry.
 1\1\GINC-GADI-CPU-CLX-2653\SP\RM052X\6-31G(d)\C2F4\YR9300\10-Jul-2025\
 0\\#P M052X/6-31G*\\F4_oct_vaccum_M05-2x\\0,1\C,0,-0.659758,0.,0.00000
 2\C,0,0.659758,0.,-0.000005\F,0,-1.38655,-1.103688,-0.000012\F,0,-1.38
 655,1.103687,0.000028\F,0,1.38655,1.103688,0.000013\F,0,1.38655,-1.103
 687,-0.000027\\Version=ES64L-G16RevC.01\State=1-A\HF=-475.4589233\RMSD
 =4.885e-09\Dipole=0.,0.,-0.0000013\Quadrupole=-0.7131071,-0.6416269,1.
 3547339,-0.0000062,0.0000113,-0.0000362\PG=C01 [X(C2F4)]\\@
 The archive entry for this job was punched.


 I am not a vegetarian because I love animals;
 I am a vegetarian because I hate plants.
                               -- A. Whitney Brown
 Job cpu time:       0 days  0 hours  0 minutes 55.0 seconds.
 Elapsed time:       0 days  0 hours  0 minutes  3.6 seconds.
 File lengths (MBytes):  RWF=     10 Int=      0 D2E=      0 Chk=      2 Scr=      1
 Normal termination of Gaussian 16 at Thu Jul 10 14:10:29 2025.
