 Entering Gaussian System, Link 0=g16
 Initial command:
 /apps/gaussian/g16c01/g16/l1.exe "/jobfs/145008289.gadi-pbs/Gau-4003152.inp" -scrdir="/jobfs/145008289.gadi-pbs/"
 Entering Link 1 = /apps/gaussian/g16c01/g16/l1.exe PID=   4003153.
  
 Copyright (c) 1988-2019, Gaussian, Inc.  All Rights Reserved.
  
 This is part of the Gaussian(R) 16 program.  It is based on
 the Gaussian(R) 09 system (copyright 2009, Gaussian, Inc.),
 the Gaussian(R) 03 system (copyright 2003, Gaussian, Inc.),
 the Gaussian(R) 98 system (copyright 1998, Gaussian, Inc.),
 the Gaussian(R) 94 system (copyright 1995, Gaussian, Inc.),
 the Gaussian 92(TM) system (copyright 1992, Gaussian, Inc.),
 the Gaussian 90(TM) system (copyright 1990, Gaussian, Inc.),
 the Gaussian 88(TM) system (copyright 1988, Gaussian, Inc.),
 the Gaussian 86(TM) system (copyright 1986, Carnegie Mellon
 University), and the Gaussian 82(TM) system (copyright 1983,
 Carnegie Mellon University). Gaussian is a federally registered
 trademark of Gaussian, Inc.
  
 This software contains proprietary and confidential information,
 including trade secrets, belonging to Gaussian, Inc.
  
 This software is provided under written license and may be
 used, copied, transmitted, or stored only in accord with that
 written license.
  
 The following legend is applicable only to US Government
 contracts under FAR:
  
                    RESTRICTED RIGHTS LEGEND
  
 Use, reproduction and disclosure by the US Government is
 subject to restrictions as set forth in subparagraphs (a)
 and (c) of the Commercial Computer Software - Restricted
 Rights clause in FAR 52.227-19.
  
 Gaussian, Inc.
 340 Quinnipiac St., Bldg. 40, Wallingford CT 06492
  
  
 ---------------------------------------------------------------
 Warning -- This program may not be used in any manner that
 competes with the business of Gaussian, Inc. or will provide
 assistance to any competitor of Gaussian, Inc.  The licensee
 of this program is prohibited from giving any competitor of
 Gaussian, Inc. access to this program.  By using this program,
 the user acknowledges that Gaussian, Inc. is engaged in the
 business of creating and licensing software in the field of
 computational chemistry and represents and warrants to the
 licensee that it is not a competitor of Gaussian, Inc. and that
 it will not use this program in any manner prohibited above.
 ---------------------------------------------------------------
  

 Cite this work as:
 Gaussian 16, Revision C.01,
 M. J. Frisch, G. W. Trucks, H. B. Schlegel, G. E. Scuseria, 
 M. A. Robb, J. R. Cheeseman, G. Scalmani, V. Barone, 
 G. A. Petersson, H. Nakatsuji, X. Li, M. Caricato, A. V. Marenich, 
 J. Bloino, B. G. Janesko, R. Gomperts, B. Mennucci, H. P. Hratchian, 
 J. V. Ortiz, A. F. Izmaylov, J. L. Sonnenberg, D. Williams-Young, 
 F. Ding, F. Lipparini, F. Egidi, J. Goings, B. Peng, A. Petrone, 
 T. Henderson, D. Ranasinghe, V. G. Zakrzewski, J. Gao, N. Rega, 
 G. Zheng, W. Liang, M. Hada, M. Ehara, K. Toyota, R. Fukuda, 
 J. Hasegawa, M. Ishida, T. Nakajima, Y. Honda, O. Kitao, H. Nakai, 
 T. Vreven, K. Throssell, J. A. Montgomery, Jr., J. E. Peralta, 
 F. Ogliaro, M. J. Bearpark, J. J. Heyd, E. N. Brothers, K. N. Kudin, 
 V. N. Staroverov, T. A. Keith, R. Kobayashi, J. Normand, 
 K. Raghavachari, A. P. Rendell, J. C. Burant, S. S. Iyengar, 
 J. Tomasi, M. Cossi, J. M. Millam, M. Klene, C. Adamo, R. Cammi, 
 J. W. Ochterski, R. L. Martin, K. Morokuma, O. Farkas, 
 J. B. Foresman, and D. J. Fox, Gaussian, Inc., Wallingford CT, 2019.
 
 ******************************************
 Gaussian 16:  ES64L-G16RevC.01  3-Jul-2019
                10-Jul-2025 
 ******************************************
 %chk=F4_wat_M05-2x.chk
 %mem=20GB
 %nprocshared=20
 Will use up to   20 processors via shared memory.
 ---------------------------------------
 #P M052X/6-31G* scrf(SMD,solvent=water)
 ---------------------------------------
 1/38=1,172=1/1;
 2/12=2,17=6,18=5,40=1/2;
 3/5=1,6=6,7=1,11=2,25=1,30=1,70=32201,72=1,74=-38/1,2,3;
 4//1;
 5/5=2,38=5,53=1/2;
 6/7=2,8=2,9=2,10=2,28=1/1;
 99/5=1,9=1/99;
 Leave Link    1 at Thu Jul 10 14:46:24 2025, MaxMem=  2684354560 cpu:               0.9 elap:               0.1
 (Enter /apps/gaussian/g16c01/g16/l101.exe)
 -------------
 F4_wat_M05-2x
 -------------
 Symbolic Z-matrix:
 Charge =  0 Multiplicity = 1
 C                    -0.6596    0.        0. 
 C                     0.6596    0.       -0.00001 
 F                    -1.38644  -1.10357  -0.00001 
 F                    -1.38644   1.10357   0.00003 
 F                     1.38644   1.10357   0.00001 
 F                     1.38644  -1.10357  -0.00003 
 
 ITRead=  0  0  0  0  0  0
 MicOpt= -1 -1 -1 -1 -1 -1
 NAtoms=      6 NQM=        6 NQMF=       0 NMMI=      0 NMMIF=      0
                NMic=       0 NMicF=      0.
                    Isotopes and Nuclear Properties:
 (Nuclear quadrupole moments (NQMom) in fm**2, nuclear magnetic moments (NMagM)
  in nuclear magnetons)

  Atom         1           2           3           4           5           6
 IAtWgt=          12          12          19          19          19          19
 AtmWgt=  12.0000000  12.0000000  18.9984033  18.9984033  18.9984033  18.9984033
 NucSpn=           0           0           1           1           1           1
 AtZEff=  -0.0000000  -0.0000000  -0.0000000  -0.0000000  -0.0000000  -0.0000000
 NQMom=    0.0000000   0.0000000   0.0000000   0.0000000   0.0000000   0.0000000
 NMagM=    0.0000000   0.0000000   2.6288670   2.6288670   2.6288670   2.6288670
 AtZNuc=   6.0000000   6.0000000   9.0000000   9.0000000   9.0000000   9.0000000
 Leave Link  101 at Thu Jul 10 14:46:24 2025, MaxMem=  2684354560 cpu:               3.0 elap:               0.3
 (Enter /apps/gaussian/g16c01/g16/l202.exe)
                          Input orientation:                          
 ---------------------------------------------------------------------
 Center     Atomic      Atomic             Coordinates (Angstroms)
 Number     Number       Type             X           Y           Z
 ---------------------------------------------------------------------
      1          6           0       -0.659597    0.000000    0.000002
      2          6           0        0.659597    0.000000   -0.000005
      3          9           0       -1.386438   -1.103575   -0.000012
      4          9           0       -1.386438    1.103575    0.000028
      5          9           0        1.386438    1.103575    0.000013
      6          9           0        1.386438   -1.103575   -0.000027
 ---------------------------------------------------------------------
                    Distance matrix (angstroms):
                    1          2          3          4          5
     1  C    0.000000
     2  C    1.319194   0.000000
     3  F    1.321429   2.324680   0.000000
     4  F    1.321429   2.324680   2.207150   0.000000
     5  F    2.324680   1.321429   3.544059   2.772876   0.000000
     6  F    2.324680   1.321429   2.772876   3.544059   2.207150
                    6
     6  F    0.000000
 Stoichiometry    C2F4
 Framework group  C1[X(C2F4)]
 Deg. of freedom    12
 Full point group                 C1      NOp   1
 Largest Abelian subgroup         C1      NOp   1
 Largest concise Abelian subgroup C1      NOp   1
                         Standard orientation:                         
 ---------------------------------------------------------------------
 Center     Atomic      Atomic             Coordinates (Angstroms)
 Number     Number       Type             X           Y           Z
 ---------------------------------------------------------------------
      1          6           0        0.659597    0.000000    0.000002
      2          6           0       -0.659597    0.000000   -0.000005
      3          9           0        1.386438    1.103575   -0.000012
      4          9           0        1.386438   -1.103575    0.000028
      5          9           0       -1.386438   -1.103575    0.000013
      6          9           0       -1.386438    1.103575   -0.000027
 ---------------------------------------------------------------------
 Rotational constants (GHZ):           5.4605501           3.2289010           2.0290782
 Leave Link  202 at Thu Jul 10 14:46:25 2025, MaxMem=  2684354560 cpu:               0.7 elap:               0.1
 (Enter /apps/gaussian/g16c01/g16/l301.exe)
 Standard basis: 6-31G(d) (6D, 7F)
 Ernie: Thresh=  0.10000D-02 Tol=  0.10000D-05 Strict=F.
 There are    90 symmetry adapted cartesian basis functions of A   symmetry.
 There are    90 symmetry adapted basis functions of A   symmetry.
    90 basis functions,   168 primitive gaussians,    90 cartesian basis functions
    24 alpha electrons       24 beta electrons
       nuclear repulsion energy       244.0544044164 Hartrees.
 IExCor= 3428 DFT=T Ex+Corr=M052X ExCW=0 ScaHFX=  0.560000
 ScaDFX=  0.440000  0.440000  1.000000  1.000000 ScalE2=  1.000000  1.000000
 IRadAn=      5 IRanWt=     -1 IRanGd=            0 ICorTp=0 IEmpDi=  4
 NAtoms=    6 NActive=    6 NUniq=    6 SFac= 1.00D+00 NAtFMM=   60 NAOKFM=F Big=F
 Integral buffers will be    131072 words long.
 Raffenetti 2 integral format.
 Two-electron integral symmetry is turned on.
 ------------------------------------------------------------------------------
 Polarizable Continuum Model (PCM)
 =================================
 Model                : PCM.
 Atomic radii         : SMD-Coulomb.
 Polarization charges : Total charges.
 Charge compensation  : None.
 Solution method      : On-the-fly selection.
 Cavity type          : VdW (van der Waals Surface) (Alpha=1.000).
 Cavity algorithm     : GePol (No added spheres)
                        Default sphere list used, NSphG=    6.
                        Lebedev-Laikov grids with approx.  5.0 points / Ang**2.
                        Smoothing algorithm: York/Karplus (Gamma=1.0000).
                        Polarization charges: spherical gaussians, with
                                              point-specific exponents (IZeta= 3).
                        Self-potential: point-specific (ISelfS= 7).
                        Self-field    : sphere-specific E.n sum rule (ISelfD= 2).
 Solvent              : Water, Eps=  78.355300 Eps(inf)=   1.777849
 ------------------------------------------------------------------------------
 Spheres list:
 ISph  on   Nord     Re0    Alpha      Xe            Ye            Ze
    1   C      1    1.8500  1.000      0.659597      0.000000      0.000002
    2   C      2    1.8500  1.000     -0.659597      0.000000     -0.000005
    3   F      3    1.7300  1.000      1.386438      1.103575     -0.000012
    4   F      4    1.7300  1.000      1.386438     -1.103575      0.000028
    5   F      5    1.7300  1.000     -1.386438     -1.103575      0.000013
    6   F      6    1.7300  1.000     -1.386438      1.103575     -0.000027
 ------------------------------------------------------------------------------
 GePol: Number of generator spheres                  =       6
 GePol: Total number of spheres                      =       6
 GePol: Number of exposed spheres                    =       6 (100.00%)
 GePol: Number of points                             =     696
 GePol: Average weight of points                     =       0.15
 GePol: Minimum weight of points                     =   0.27D-06
 GePol: Maximum weight of points                     =    0.21501
 GePol: Number of points with low weight             =      44
 GePol: Fraction of low-weight points (<1% of avg)   =       6.32%
 GePol: Cavity surface area                          =    103.353 Ang**2
 GePol: Cavity volume                                =     80.508 Ang**3
 ------------------------------------------------------------------------------
 Atomic radii for non-electrostatic terms: SMD-CDS.
 ------------------------------------------------------------------------------
 PCM non-electrostatic energy =         0.0082622238 Hartrees.
 Nuclear repulsion after PCM non-electrostatic terms =      244.0626666401 Hartrees.
 Leave Link  301 at Thu Jul 10 14:46:25 2025, MaxMem=  2684354560 cpu:               1.6 elap:               0.1
 (Enter /apps/gaussian/g16c01/g16/l302.exe)
 NPDir=0 NMtPBC=     1 NCelOv=     1 NCel=       1 NClECP=     1 NCelD=      1
         NCelK=      1 NCelE2=     1 NClLst=     1 CellRange=     0.0.
 One-electron integrals computed using PRISM.
 One-electron integral symmetry used in STVInt
 NBasis=    90 RedAO= T EigKep=  1.82D-03  NBF=    90
 NBsUse=    90 1.00D-06 EigRej= -1.00D+00 NBFU=    90
 Precomputing XC quadrature grid using
 IXCGrd= 4 IRadAn=           5 IRanWt=          -1 IRanGd=           0 AccXCQ= 0.00D+00.
 Generated NRdTot=       0 NPtTot=           0 NUsed=           0 NTot=          32
 NSgBfM=    90    90    90    90    90 MxSgAt=     6 MxSgA2=     6.
 Leave Link  302 at Thu Jul 10 14:46:25 2025, MaxMem=  2684354560 cpu:               8.0 elap:               0.6
 (Enter /apps/gaussian/g16c01/g16/l303.exe)
 DipDrv:  MaxL=1.
 Leave Link  303 at Thu Jul 10 14:46:25 2025, MaxMem=  2684354560 cpu:               1.4 elap:               0.1
 (Enter /apps/gaussian/g16c01/g16/l401.exe)
 ExpMin= 1.69D-01 ExpMax= 7.00D+03 ExpMxC= 1.05D+03 IAcc=3 IRadAn=         5 AccDes= 0.00D+00
 Harris functional with IExCor= 1009 and IRadAn=       5 diagonalized for initial guess.
 HarFok:  IExCor= 1009 AccDes= 0.00D+00 IRadAn=         5 IDoV= 1 UseB2=F ITyADJ=14
 ICtDFT=  3500011 ScaDFX=  1.000000  1.000000  1.000000  1.000000
 FoFCou: FMM=F IPFlag=           0 FMFlag=      100000 FMFlg1=           0
         NFxFlg=           0 DoJE=T BraDBF=F KetDBF=T FulRan=T
         wScrn=  0.000000 ICntrl=       500 IOpCl=  0 I1Cent=   200000004 NGrid=           0
         NMat0=    1 NMatS0=      1 NMatT0=    0 NMatD0=    1 NMtDS0=    0 NMtDT0=    0
 Petite list used in FoFCou.
 Harris En= -475.032348566970    
 JPrj=0 DoOrth=F DoCkMO=F.
 Leave Link  401 at Thu Jul 10 14:46:26 2025, MaxMem=  2684354560 cpu:               8.7 elap:               0.6
 (Enter /apps/gaussian/g16c01/g16/l502.exe)
 Keep R1 ints in memory in canonical form, NReq=26684246.
 FoFCou: FMM=F IPFlag=           0 FMFlag=           0 FMFlg1=           0
         NFxFlg=           0 DoJE=F BraDBF=F KetDBF=F FulRan=T
         wScrn=  0.000000 ICntrl=       600 IOpCl=  0 I1Cent=           0 NGrid=           0
         NMat0=    1 NMatS0=   4095 NMatT0=    0 NMatD0=    1 NMtDS0=    0 NMtDT0=    0
 Symmetry not used in FoFCou.
 Two-electron integral symmetry not used.
 Closed shell SCF:
 Using DIIS extrapolation, IDIIS=  1040.
 NGot=  2684354560 LenX=  2675948868 LenY=  2675940327
 Requested convergence on RMS density matrix=1.00D-08 within 128 cycles.
 Requested convergence on MAX density matrix=1.00D-06.
 Requested convergence on             energy=1.00D-06.
 No special actions if energy rises.

 Cycle   1  Pass 1  IDiag  1:
 Inv3:  Mode=1 IEnd=     1453248.
 Iteration    1 A*A^-1 deviation from unit magnitude is 2.44D-15 for    689.
 Iteration    1 A*A^-1 deviation from orthogonality  is 1.12D-15 for    662    240.
 Iteration    1 A^-1*A deviation from unit magnitude is 2.44D-15 for    689.
 Iteration    1 A^-1*A deviation from orthogonality  is 7.84D-16 for    615    531.
 E= -475.424534079801    
 DIIS: error= 2.07D-02 at cycle   1 NSaved=   1.
 NSaved= 1 IEnMin= 1 EnMin= -475.424534079801     IErMin= 1 ErrMin= 2.07D-02
 ErrMax= 2.07D-02  0.00D+00 EMaxC= 1.00D-01 BMatC= 6.23D-02 BMatP= 6.23D-02
 IDIUse=3 WtCom= 7.93D-01 WtEn= 2.07D-01
 Coeff-Com:  0.100D+01
 Coeff-En:   0.100D+01
 Coeff:      0.100D+01
 Gap=     0.395 Goal=   None    Shift=    0.000
 GapD=    0.395 DampG=1.000 DampE=0.500 DampFc=0.5000 IDamp=-1.
 Damping current iteration by 5.00D-01
 RMSDP=2.31D-03 MaxDP=3.19D-02              OVMax= 3.26D-02

 Cycle   2  Pass 1  IDiag  1:
 E= -475.438366193009     Delta-E=       -0.013832113207 Rises=F Damp=T
 DIIS: error= 1.03D-02 at cycle   2 NSaved=   2.
 NSaved= 2 IEnMin= 2 EnMin= -475.438366193009     IErMin= 2 ErrMin= 1.03D-02
 ErrMax= 1.03D-02  0.00D+00 EMaxC= 1.00D-01 BMatC= 9.01D-03 BMatP= 6.23D-02
 IDIUse=3 WtCom= 8.97D-01 WtEn= 1.03D-01
 Coeff-Com: -0.262D+00 0.126D+01
 Coeff-En:   0.000D+00 0.100D+01
 Coeff:     -0.235D+00 0.123D+01
 Gap=     0.405 Goal=   None    Shift=    0.000
 RMSDP=9.57D-04 MaxDP=1.24D-02 DE=-1.38D-02 OVMax= 3.00D-02

 Cycle   3  Pass 1  IDiag  1:
 E= -475.450941374134     Delta-E=       -0.012575181125 Rises=F Damp=F
 DIIS: error= 4.43D-03 at cycle   3 NSaved=   3.
 NSaved= 3 IEnMin= 3 EnMin= -475.450941374134     IErMin= 3 ErrMin= 4.43D-03
 ErrMax= 4.43D-03  0.00D+00 EMaxC= 1.00D-01 BMatC= 2.55D-03 BMatP= 9.01D-03
 IDIUse=3 WtCom= 9.56D-01 WtEn= 4.43D-02
 Coeff-Com: -0.221D+00 0.491D+00 0.731D+00
 Coeff-En:   0.000D+00 0.000D+00 0.100D+01
 Coeff:     -0.211D+00 0.469D+00 0.743D+00
 Gap=     0.403 Goal=   None    Shift=    0.000
 RMSDP=3.59D-04 MaxDP=5.17D-03 DE=-1.26D-02 OVMax= 7.34D-03

 Cycle   4  Pass 1  IDiag  1:
 E= -475.452497608186     Delta-E=       -0.001556234053 Rises=F Damp=F
 DIIS: error= 7.91D-04 at cycle   4 NSaved=   4.
 NSaved= 4 IEnMin= 4 EnMin= -475.452497608186     IErMin= 4 ErrMin= 7.91D-04
 ErrMax= 7.91D-04  0.00D+00 EMaxC= 1.00D-01 BMatC= 3.75D-05 BMatP= 2.55D-03
 IDIUse=3 WtCom= 9.92D-01 WtEn= 7.91D-03
 Coeff-Com: -0.353D-01 0.681D-01 0.182D+00 0.785D+00
 Coeff-En:   0.000D+00 0.000D+00 0.000D+00 0.100D+01
 Coeff:     -0.350D-01 0.676D-01 0.181D+00 0.787D+00
 Gap=     0.404 Goal=   None    Shift=    0.000
 RMSDP=6.16D-05 MaxDP=1.11D-03 DE=-1.56D-03 OVMax= 1.73D-03

 Cycle   5  Pass 1  IDiag  1:
 E= -475.452531480069     Delta-E=       -0.000033871882 Rises=F Damp=F
 DIIS: error= 1.43D-04 at cycle   5 NSaved=   5.
 NSaved= 5 IEnMin= 5 EnMin= -475.452531480069     IErMin= 5 ErrMin= 1.43D-04
 ErrMax= 1.43D-04  0.00D+00 EMaxC= 1.00D-01 BMatC= 1.20D-06 BMatP= 3.75D-05
 IDIUse=3 WtCom= 9.99D-01 WtEn= 1.43D-03
 Coeff-Com:  0.145D-03-0.292D-02-0.388D-02 0.115D+00 0.891D+00
 Coeff-En:   0.000D+00 0.000D+00 0.000D+00 0.000D+00 0.100D+01
 Coeff:      0.145D-03-0.291D-02-0.388D-02 0.115D+00 0.891D+00
 Gap=     0.404 Goal=   None    Shift=    0.000
 RMSDP=9.75D-06 MaxDP=1.72D-04 DE=-3.39D-05 OVMax= 1.93D-04

 Cycle   6  Pass 1  IDiag  1:
 E= -475.452532507364     Delta-E=       -0.000001027295 Rises=F Damp=F
 DIIS: error= 1.62D-05 at cycle   6 NSaved=   6.
 NSaved= 6 IEnMin= 6 EnMin= -475.452532507364     IErMin= 6 ErrMin= 1.62D-05
 ErrMax= 1.62D-05  0.00D+00 EMaxC= 1.00D-01 BMatC= 2.62D-08 BMatP= 1.20D-06
 IDIUse=1 WtCom= 1.00D+00 WtEn= 0.00D+00
 Coeff-Com:  0.141D-02-0.264D-02-0.104D-01-0.370D-01 0.229D-01 0.103D+01
 Coeff:      0.141D-02-0.264D-02-0.104D-01-0.370D-01 0.229D-01 0.103D+01
 Gap=     0.404 Goal=   None    Shift=    0.000
 RMSDP=2.02D-06 MaxDP=2.16D-05 DE=-1.03D-06 OVMax= 7.00D-05

 Cycle   7  Pass 1  IDiag  1:
 E= -475.452532537675     Delta-E=       -0.000000030312 Rises=F Damp=F
 DIIS: error= 1.36D-06 at cycle   7 NSaved=   7.
 NSaved= 7 IEnMin= 7 EnMin= -475.452532537675     IErMin= 7 ErrMin= 1.36D-06
 ErrMax= 1.36D-06  0.00D+00 EMaxC= 1.00D-01 BMatC= 1.61D-10 BMatP= 2.62D-08
 IDIUse=1 WtCom= 1.00D+00 WtEn= 0.00D+00
 Coeff-Com: -0.660D-04 0.150D-03 0.539D-03 0.378D-03-0.942D-02-0.500D-01
 Coeff-Com:  0.106D+01
 Coeff:     -0.660D-04 0.150D-03 0.539D-03 0.378D-03-0.942D-02-0.500D-01
 Coeff:      0.106D+01
 Gap=     0.404 Goal=   None    Shift=    0.000
 RMSDP=2.10D-07 MaxDP=2.36D-06 DE=-3.03D-08 OVMax= 7.53D-06

 Cycle   8  Pass 1  IDiag  1:
 E= -475.452532537984     Delta-E=       -0.000000000309 Rises=F Damp=F
 DIIS: error= 3.52D-07 at cycle   8 NSaved=   8.
 NSaved= 8 IEnMin= 8 EnMin= -475.452532537984     IErMin= 8 ErrMin= 3.52D-07
 ErrMax= 3.52D-07  0.00D+00 EMaxC= 1.00D-01 BMatC= 7.91D-12 BMatP= 1.61D-10
 IDIUse=1 WtCom= 1.00D+00 WtEn= 0.00D+00
 Coeff-Com: -0.434D-04 0.820D-04 0.364D-03 0.124D-02-0.378D-03-0.360D-01
 Coeff-Com: -0.665D-02 0.104D+01
 Coeff:     -0.434D-04 0.820D-04 0.364D-03 0.124D-02-0.378D-03-0.360D-01
 Coeff:     -0.665D-02 0.104D+01
 Gap=     0.404 Goal=   None    Shift=    0.000
 RMSDP=4.96D-08 MaxDP=7.00D-07 DE=-3.09D-10 OVMax= 1.60D-06

 Cycle   9  Pass 1  IDiag  1:
 E= -475.452532537995     Delta-E=       -0.000000000011 Rises=F Damp=F
 DIIS: error= 3.29D-08 at cycle   9 NSaved=   9.
 NSaved= 9 IEnMin= 9 EnMin= -475.452532537995     IErMin= 9 ErrMin= 3.29D-08
 ErrMax= 3.29D-08  0.00D+00 EMaxC= 1.00D-01 BMatC= 8.50D-14 BMatP= 7.91D-12
 IDIUse=1 WtCom= 1.00D+00 WtEn= 0.00D+00
 Coeff-Com:  0.662D-05-0.131D-04-0.494D-04-0.138D-03 0.246D-03 0.486D-02
 Coeff-Com: -0.216D-01-0.971D-01 0.111D+01
 Coeff:      0.662D-05-0.131D-04-0.494D-04-0.138D-03 0.246D-03 0.486D-02
 Coeff:     -0.216D-01-0.971D-01 0.111D+01
 Gap=     0.404 Goal=   None    Shift=    0.000
 RMSDP=8.07D-09 MaxDP=1.02D-07 DE=-1.10D-11 OVMax= 1.79D-07

 Error on total polarization charges =  0.00307
 SCF Done:  E(RM052X) =  -475.452532538     A.U. after    9 cycles
            NFock=  9  Conv=0.81D-08     -V/T= 2.0071
 KE= 4.721068811191D+02 PE=-1.615981517087D+03 EE= 4.243594367902D+02
 SMD-CDS (non-electrostatic) energy       (kcal/mol) =       5.18
 (included in total energy above)
 Leave Link  502 at Thu Jul 10 14:46:32 2025, MaxMem=  2684354560 cpu:              92.2 elap:               5.7
 (Enter /apps/gaussian/g16c01/g16/l601.exe)
 Copying SCF densities to generalized density rwf, IOpCl= 0 IROHF=0.

 **********************************************************************

            Population analysis using the SCF Density.

 **********************************************************************

 Orbital symmetries:
       Occupied  (A) (A) (A) (A) (A) (A) (A) (A) (A) (A) (A) (A)
                 (A) (A) (A) (A) (A) (A) (A) (A) (A) (A) (A) (A)
       Virtual   (A) (A) (A) (A) (A) (A) (A) (A) (A) (A) (A) (A)
                 (A) (A) (A) (A) (A) (A) (A) (A) (A) (A) (A) (A)
                 (A) (A) (A) (A) (A) (A) (A) (A) (A) (A) (A) (A)
                 (A) (A) (A) (A) (A) (A) (A) (A) (A) (A) (A) (A)
                 (A) (A) (A) (A) (A) (A) (A) (A) (A) (A) (A) (A)
                 (A) (A) (A) (A) (A) (A)
 The electronic state is 1-A.
 Alpha  occ. eigenvalues --  -25.35580 -25.35580 -25.35579 -25.35579 -10.76351
 Alpha  occ. eigenvalues --  -10.76229  -1.44266  -1.42656  -1.38073  -1.36908
 Alpha  occ. eigenvalues --   -0.91433  -0.76032  -0.71280  -0.70217  -0.65407
 Alpha  occ. eigenvalues --   -0.65267  -0.61003  -0.58319  -0.55844  -0.55287
 Alpha  occ. eigenvalues --   -0.54532  -0.53302  -0.52714  -0.31547
 Alpha virt. eigenvalues --    0.08808   0.13097   0.20024   0.21498   0.46100
 Alpha virt. eigenvalues --    0.49483   0.54631   0.55033   0.56692   0.61420
 Alpha virt. eigenvalues --    0.64101   0.67217   0.68687   1.01318   1.12954
 Alpha virt. eigenvalues --    1.13877   1.17150   1.19689   1.24521   1.26824
 Alpha virt. eigenvalues --    1.30472   1.36043   1.39568   1.41505   1.43226
 Alpha virt. eigenvalues --    1.43632   1.46144   1.51462   1.52499   1.54839
 Alpha virt. eigenvalues --    1.68872   1.77790   1.78501   1.81398   1.84722
 Alpha virt. eigenvalues --    1.88394   1.89268   1.89351   1.96580   1.99870
 Alpha virt. eigenvalues --    2.00239   2.00426   2.01121   2.02592   2.03292
 Alpha virt. eigenvalues --    2.13105   2.25581   2.33628   2.35091   2.43736
 Alpha virt. eigenvalues --    2.44430   2.73242   2.73809   2.77875   2.81635
 Alpha virt. eigenvalues --    3.03683   3.05046   3.12652   3.31888   3.36445
 Alpha virt. eigenvalues --    4.00787   4.30254   4.35303   4.66587   5.20010
 Alpha virt. eigenvalues --    6.21327
          Condensed to atoms (all electrons):
               1          2          3          4          5          6
     1  C    4.569252   0.416591   0.310227   0.310227  -0.051715  -0.051715
     2  C    0.416591   4.569252  -0.051715  -0.051715   0.310227   0.310227
     3  F    0.310227  -0.051715   9.025171  -0.035597   0.000247   0.000233
     4  F    0.310227  -0.051715  -0.035597   9.025171   0.000233   0.000247
     5  F   -0.051715   0.310227   0.000247   0.000233   9.025171  -0.035597
     6  F   -0.051715   0.310227   0.000233   0.000247  -0.035597   9.025171
 Mulliken charges:
               1
     1  C    0.497133
     2  C    0.497133
     3  F   -0.248567
     4  F   -0.248567
     5  F   -0.248567
     6  F   -0.248567
 Sum of Mulliken charges =  -0.00000
 Mulliken charges with hydrogens summed into heavy atoms:
               1
     1  C    0.497133
     2  C    0.497133
     3  F   -0.248567
     4  F   -0.248567
     5  F   -0.248567
     6  F   -0.248567
 Electronic spatial extent (au):  <R**2>=            490.5498
 Charge=              0.0000 electrons
 Dipole moment (field-independent basis, Debye):
    X=             -0.0000    Y=              0.0000    Z=             -0.0000  Tot=              0.0000
 Quadrupole moment (field-independent basis, Debye-Ang):
   XX=            -31.6603   YY=            -31.5135   ZZ=            -28.5864
   XY=             -0.0000   XZ=             -0.0000   YZ=              0.0001
 Traceless Quadrupole moment (field-independent basis, Debye-Ang):
   XX=             -1.0736   YY=             -0.9268   ZZ=              2.0004
   XY=             -0.0000   XZ=             -0.0000   YZ=              0.0001
 Octapole moment (field-independent basis, Debye-Ang**2):
  XXX=             -0.0000  YYY=              0.0000  ZZZ=              0.0000  XYY=             -0.0000
  XXY=              0.0000  XXZ=              0.0000  XZZ=             -0.0000  YZZ=              0.0000
  YYZ=              0.0000  XYZ=             -0.0000
 Hexadecapole moment (field-independent basis, Debye-Ang**3):
 XXXX=           -265.8722 YYYY=           -154.5790 ZZZZ=            -19.6741 XXXY=             -0.0000
 XXXZ=             -0.0007 YYYX=             -0.0000 YYYZ=              0.0012 ZZZX=             -0.0006
 ZZZY=              0.0012 XXYY=            -73.0381 XXZZ=            -45.8417 YYZZ=            -28.8672
 XXYZ=              0.0005 YYXZ=             -0.0002 ZZXY=             -0.0000
 N-N= 2.440626666401D+02 E-N=-1.615981518013D+03  KE= 4.721068811191D+02
 No NMR shielding tensors so no spin-rotation constants.
 Leave Link  601 at Thu Jul 10 14:46:34 2025, MaxMem=  2684354560 cpu:              20.9 elap:               1.9
 (Enter /apps/gaussian/g16c01/g16/l9999.exe)
 Unable to Open any file for archive entry.
 1\1\GINC-GADI-CPU-CLX-1983\SP\RM052X\6-31G(d)\C2F4\YR9300\10-Jul-2025\
 0\\#P M052X/6-31G* scrf(SMD,solvent=water)\\F4_wat_M05-2x\\0,1\C,0,-0.
 659597,0.,0.000002\C,0,0.659597,0.,-0.000005\F,0,-1.386438,-1.103575,-
 0.000012\F,0,-1.386438,1.103575,0.000028\F,0,1.386438,1.103575,0.00001
 3\F,0,1.386438,-1.103575,-0.000027\\Version=ES64L-G16RevC.01\State=1-A
 \HF=-475.4525325\RMSD=8.072e-09\Dipole=0.,0.,-0.0000016\Quadrupole=-0.
 7981711,-0.6890567,1.4872278,0.,0.0000125,-0.0000396\PG=C01 [X(C2F4)]\
 \@
 The archive entry for this job was punched.


 WE THE UNWILLING
 LED BY THE UNQUALIFIED
 HAVE BEEN DOING THE UNBELIEVABLE SO LONG WITH SO LITTLE
 THAT WE NOW ATTEMPT THE IMPOSSIBLE WITH NOTHING.

                                    -- ANONYMOUS
 Job cpu time:       0 days  0 hours  2 minutes 18.5 seconds.
 Elapsed time:       0 days  0 hours  0 minutes  9.5 seconds.
 File lengths (MBytes):  RWF=     15 Int=      0 D2E=      0 Chk=      2 Scr=      1
 Normal termination of Gaussian 16 at Thu Jul 10 14:46:34 2025.
