 Entering Gaussian System, Link 0=g16
 Initial command:
 /apps/gaussian/g16c01/g16/l1.exe "/jobfs/145008560.gadi-pbs/Gau-837132.inp" -scrdir="/jobfs/145008560.gadi-pbs/"
 Entering Link 1 = /apps/gaussian/g16c01/g16/l1.exe PID=    837133.
  
 Copyright (c) 1988-2019, Gaussian, Inc.  All Rights Reserved.
  
 This is part of the Gaussian(R) 16 program.  It is based on
 the Gaussian(R) 09 system (copyright 2009, Gaussian, Inc.),
 the Gaussian(R) 03 system (copyright 2003, Gaussian, Inc.),
 the Gaussian(R) 98 system (copyright 1998, Gaussian, Inc.),
 the Gaussian(R) 94 system (copyright 1995, Gaussian, Inc.),
 the Gaussian 92(TM) system (copyright 1992, Gaussian, Inc.),
 the Gaussian 90(TM) system (copyright 1990, Gaussian, Inc.),
 the Gaussian 88(TM) system (copyright 1988, Gaussian, Inc.),
 the Gaussian 86(TM) system (copyright 1986, Carnegie Mellon
 University), and the Gaussian 82(TM) system (copyright 1983,
 Carnegie Mellon University). Gaussian is a federally registered
 trademark of Gaussian, Inc.
  
 This software contains proprietary and confidential information,
 including trade secrets, belonging to Gaussian, Inc.
  
 This software is provided under written license and may be
 used, copied, transmitted, or stored only in accord with that
 written license.
  
 The following legend is applicable only to US Government
 contracts under FAR:
  
                    RESTRICTED RIGHTS LEGEND
  
 Use, reproduction and disclosure by the US Government is
 subject to restrictions as set forth in subparagraphs (a)
 and (c) of the Commercial Computer Software - Restricted
 Rights clause in FAR 52.227-19.
  
 Gaussian, Inc.
 340 Quinnipiac St., Bldg. 40, Wallingford CT 06492
  
  
 ---------------------------------------------------------------
 Warning -- This program may not be used in any manner that
 competes with the business of Gaussian, Inc. or will provide
 assistance to any competitor of Gaussian, Inc.  The licensee
 of this program is prohibited from giving any competitor of
 Gaussian, Inc. access to this program.  By using this program,
 the user acknowledges that Gaussian, Inc. is engaged in the
 business of creating and licensing software in the field of
 computational chemistry and represents and warrants to the
 licensee that it is not a competitor of Gaussian, Inc. and that
 it will not use this program in any manner prohibited above.
 ---------------------------------------------------------------
  

 Cite this work as:
 Gaussian 16, Revision C.01,
 M. J. Frisch, G. W. Trucks, H. B. Schlegel, G. E. Scuseria, 
 M. A. Robb, J. R. Cheeseman, G. Scalmani, V. Barone, 
 G. A. Petersson, H. Nakatsuji, X. Li, M. Caricato, A. V. Marenich, 
 J. Bloino, B. G. Janesko, R. Gomperts, B. Mennucci, H. P. Hratchian, 
 J. V. Ortiz, A. F. Izmaylov, J. L. Sonnenberg, D. Williams-Young, 
 F. Ding, F. Lipparini, F. Egidi, J. Goings, B. Peng, A. Petrone, 
 T. Henderson, D. Ranasinghe, V. G. Zakrzewski, J. Gao, N. Rega, 
 G. Zheng, W. Liang, M. Hada, M. Ehara, K. Toyota, R. Fukuda, 
 J. Hasegawa, M. Ishida, T. Nakajima, Y. Honda, O. Kitao, H. Nakai, 
 T. Vreven, K. Throssell, J. A. Montgomery, Jr., J. E. Peralta, 
 F. Ogliaro, M. J. Bearpark, J. J. Heyd, E. N. Brothers, K. N. Kudin, 
 V. N. Staroverov, T. A. Keith, R. Kobayashi, J. Normand, 
 K. Raghavachari, A. P. Rendell, J. C. Burant, S. S. Iyengar, 
 J. Tomasi, M. Cossi, J. M. Millam, M. Klene, C. Adamo, R. Cammi, 
 J. W. Ochterski, R. L. Martin, K. Morokuma, O. Farkas, 
 J. B. Foresman, and D. J. Fox, Gaussian, Inc., Wallingford CT, 2019.
 
 ******************************************
 Gaussian 16:  ES64L-G16RevC.01  3-Jul-2019
                10-Jul-2025 
 ******************************************
 %chk=Cl4_wat_M05-2x.chk
 %mem=20GB
 %nprocshared=20
 Will use up to   20 processors via shared memory.
 ---------------------------------------
 #P M052X/6-31G* scrf(SMD,solvent=water)
 ---------------------------------------
 1/38=1,172=1/1;
 2/12=2,17=6,18=5,40=1/2;
 3/5=1,6=6,7=1,11=2,25=1,30=1,70=32201,72=1,74=-38/1,2,3;
 4//1;
 5/5=2,38=5,53=1/2;
 6/7=2,8=2,9=2,10=2,28=1/1;
 99/5=1,9=1/99;
 Leave Link    1 at Thu Jul 10 14:44:08 2025, MaxMem=  2684354560 cpu:               1.3 elap:               0.1
 (Enter /apps/gaussian/g16c01/g16/l101.exe)
 --------------
 Cl4_wat_M05-2x
 --------------
 Symbolic Z-matrix:
 Charge =  0 Multiplicity = 1
 C                    -0.66966  0.         0.00001 
 C                     0.66968  0.         0.00003 
 Cl                   -1.59984   1.45797   0. 
 Cl                   -1.59984  -1.45797  -0.00005 
 Cl                    1.59984  -1.45797  -0.00001 
 Cl                    1.59983   1.45797   0.00005 
 
 ITRead=  0  0  0  0  0  0
 MicOpt= -1 -1 -1 -1 -1 -1
 NAtoms=      6 NQM=        6 NQMF=       0 NMMI=      0 NMMIF=      0
                NMic=       0 NMicF=      0.
                    Isotopes and Nuclear Properties:
 (Nuclear quadrupole moments (NQMom) in fm**2, nuclear magnetic moments (NMagM)
  in nuclear magnetons)

  Atom         1           2           3           4           5           6
 IAtWgt=          12          12          35          35          35          35
 AtmWgt=  12.0000000  12.0000000  34.9688527  34.9688527  34.9688527  34.9688527
 NucSpn=           0           0           3           3           3           3
 AtZEff=  -0.0000000  -0.0000000  -0.0000000  -0.0000000  -0.0000000  -0.0000000
 NQMom=    0.0000000   0.0000000  -8.1650000  -8.1650000  -8.1650000  -8.1650000
 NMagM=    0.0000000   0.0000000   0.8218740   0.8218740   0.8218740   0.8218740
 AtZNuc=   6.0000000   6.0000000  17.0000000  17.0000000  17.0000000  17.0000000
 Leave Link  101 at Thu Jul 10 14:44:09 2025, MaxMem=  2684354560 cpu:               2.7 elap:               0.3
 (Enter /apps/gaussian/g16c01/g16/l202.exe)
                          Input orientation:                          
 ---------------------------------------------------------------------
 Center     Atomic      Atomic             Coordinates (Angstroms)
 Number     Number       Type             X           Y           Z
 ---------------------------------------------------------------------
      1          6           0       -0.669663   -0.000002    0.000014
      2          6           0        0.669679   -0.000004    0.000032
      3         17           0       -1.599835    1.457969    0.000000
      4         17           0       -1.599839   -1.457968   -0.000054
      5         17           0        1.599836   -1.457970   -0.000013
      6         17           0        1.599832    1.457971    0.000050
 ---------------------------------------------------------------------
                    Distance matrix (angstroms):
                    1          2          3          4          5
     1  C    0.000000
     2  C    1.339342   0.000000
     3  Cl   1.729422   2.697476   0.000000
     4  Cl   1.729420   2.697475   2.915937   0.000000
     5  Cl   2.697461   1.729409   4.329041   3.199675   0.000000
     6  Cl   2.697460   1.729415   3.199667   4.329041   2.915941
                    6
     6  Cl   0.000000
 Stoichiometry    C2Cl4
 Framework group  C1[X(C2Cl4)]
 Deg. of freedom    12
 Full point group                 C1      NOp   1
 Largest Abelian subgroup         C1      NOp   1
 Largest concise Abelian subgroup C1      NOp   1
                         Standard orientation:                         
 ---------------------------------------------------------------------
 Center     Atomic      Atomic             Coordinates (Angstroms)
 Number     Number       Type             X           Y           Z
 ---------------------------------------------------------------------
      1          6           0       -0.669663   -0.000002    0.000014
      2          6           0        0.669679   -0.000004    0.000032
      3         17           0       -1.599835    1.457969    0.000000
      4         17           0       -1.599839   -1.457968   -0.000054
      5         17           0        1.599836   -1.457970   -0.000013
      6         17           0        1.599832    1.457971    0.000050
 ---------------------------------------------------------------------
 Rotational constants (GHZ):           1.6997261           1.3704434           0.7587133
 Leave Link  202 at Thu Jul 10 14:44:09 2025, MaxMem=  2684354560 cpu:               1.6 elap:               0.1
 (Enter /apps/gaussian/g16c01/g16/l301.exe)
 Standard basis: 6-31G(d) (6D, 7F)
 Ernie: Thresh=  0.10000D-02 Tol=  0.10000D-05 Strict=F.
 There are   106 symmetry adapted cartesian basis functions of A   symmetry.
 There are   106 symmetry adapted basis functions of A   symmetry.
   106 basis functions,   264 primitive gaussians,   106 cartesian basis functions
    40 alpha electrons       40 beta electrons
       nuclear repulsion energy       490.2461060217 Hartrees.
 IExCor= 3428 DFT=T Ex+Corr=M052X ExCW=0 ScaHFX=  0.560000
 ScaDFX=  0.440000  0.440000  1.000000  1.000000 ScalE2=  1.000000  1.000000
 IRadAn=      5 IRanWt=     -1 IRanGd=            0 ICorTp=0 IEmpDi=  4
 NAtoms=    6 NActive=    6 NUniq=    6 SFac= 1.00D+00 NAtFMM=   60 NAOKFM=F Big=F
 Integral buffers will be    131072 words long.
 Raffenetti 2 integral format.
 Two-electron integral symmetry is turned on.
 ------------------------------------------------------------------------------
 Polarizable Continuum Model (PCM)
 =================================
 Model                : PCM.
 Atomic radii         : SMD-Coulomb.
 Polarization charges : Total charges.
 Charge compensation  : None.
 Solution method      : On-the-fly selection.
 Cavity type          : VdW (van der Waals Surface) (Alpha=1.000).
 Cavity algorithm     : GePol (No added spheres)
                        Default sphere list used, NSphG=    6.
                        Lebedev-Laikov grids with approx.  5.0 points / Ang**2.
                        Smoothing algorithm: York/Karplus (Gamma=1.0000).
                        Polarization charges: spherical gaussians, with
                                              point-specific exponents (IZeta= 3).
                        Self-potential: point-specific (ISelfS= 7).
                        Self-field    : sphere-specific E.n sum rule (ISelfD= 2).
 Solvent              : Water, Eps=  78.355300 Eps(inf)=   1.777849
 ------------------------------------------------------------------------------
 Spheres list:
 ISph  on   Nord     Re0    Alpha      Xe            Ye            Ze
    1   C      1    1.8500  1.000     -0.669663     -0.000002      0.000014
    2   C      2    1.8500  1.000      0.669679     -0.000004      0.000032
    3  Cl      3    2.3800  1.000     -1.599835      1.457969      0.000000
    4  Cl      4    2.3800  1.000     -1.599839     -1.457968     -0.000054
    5  Cl      5    2.3800  1.000      1.599836     -1.457970     -0.000013
    6  Cl      6    2.3800  1.000      1.599832      1.457971      0.000050
 ------------------------------------------------------------------------------
 GePol: Number of generator spheres                  =       6
 GePol: Total number of spheres                      =       6
 GePol: Number of exposed spheres                    =       6 (100.00%)
 GePol: Number of points                             =    1228
 GePol: Average weight of points                     =       0.15
 GePol: Minimum weight of points                     =   0.22D-06
 GePol: Maximum weight of points                     =    0.18138
 GePol: Number of points with low weight             =      20
 GePol: Fraction of low-weight points (<1% of avg)   =       1.63%
 GePol: Cavity surface area                          =    183.414 Ang**2
 GePol: Cavity volume                                =    188.306 Ang**3
 ------------------------------------------------------------------------------
 Atomic radii for non-electrostatic terms: SMD-CDS.
 ------------------------------------------------------------------------------
 PCM non-electrostatic energy =         0.0039825261 Hartrees.
 Nuclear repulsion after PCM non-electrostatic terms =      490.2500885478 Hartrees.
 Leave Link  301 at Thu Jul 10 14:44:09 2025, MaxMem=  2684354560 cpu:               1.9 elap:               0.2
 (Enter /apps/gaussian/g16c01/g16/l302.exe)
 NPDir=0 NMtPBC=     1 NCelOv=     1 NCel=       1 NClECP=     1 NCelD=      1
         NCelK=      1 NCelE2=     1 NClLst=     1 CellRange=     0.0.
 One-electron integrals computed using PRISM.
 One-electron integral symmetry used in STVInt
 NBasis=   106 RedAO= T EigKep=  3.81D-03  NBF=   106
 NBsUse=   106 1.00D-06 EigRej= -1.00D+00 NBFU=   106
 Precomputing XC quadrature grid using
 IXCGrd= 4 IRadAn=           5 IRanWt=          -1 IRanGd=           0 AccXCQ= 0.00D+00.
 Generated NRdTot=       0 NPtTot=           0 NUsed=           0 NTot=          32
 NSgBfM=   105   105   105   105   105 MxSgAt=     6 MxSgA2=     6.
 Leave Link  302 at Thu Jul 10 14:44:09 2025, MaxMem=  2684354560 cpu:               3.6 elap:               0.3
 (Enter /apps/gaussian/g16c01/g16/l303.exe)
 DipDrv:  MaxL=1.
 Leave Link  303 at Thu Jul 10 14:44:09 2025, MaxMem=  2684354560 cpu:               1.1 elap:               0.1
 (Enter /apps/gaussian/g16c01/g16/l401.exe)
 ExpMin= 1.43D-01 ExpMax= 2.52D+04 ExpMxC= 3.78D+03 IAcc=3 IRadAn=         5 AccDes= 0.00D+00
 Harris functional with IExCor= 1009 and IRadAn=       5 diagonalized for initial guess.
 HarFok:  IExCor= 1009 AccDes= 0.00D+00 IRadAn=         5 IDoV= 1 UseB2=F ITyADJ=14
 ICtDFT=  3500011 ScaDFX=  1.000000  1.000000  1.000000  1.000000
 FoFCou: FMM=F IPFlag=           0 FMFlag=      100000 FMFlg1=           0
         NFxFlg=           0 DoJE=T BraDBF=F KetDBF=T FulRan=T
         wScrn=  0.000000 ICntrl=       500 IOpCl=  0 I1Cent=   200000004 NGrid=           0
         NMat0=    1 NMatS0=      1 NMatT0=    0 NMatD0=    1 NMtDS0=    0 NMtDT0=    0
 Petite list used in FoFCou.
 Harris En= -1915.77967419478    
 JPrj=0 DoOrth=F DoCkMO=F.
 Leave Link  401 at Thu Jul 10 14:44:10 2025, MaxMem=  2684354560 cpu:               4.7 elap:               0.4
 (Enter /apps/gaussian/g16c01/g16/l502.exe)
 Keep R1 ints in memory in canonical form, NReq=34712222.
 FoFCou: FMM=F IPFlag=           0 FMFlag=           0 FMFlg1=           0
         NFxFlg=           0 DoJE=F BraDBF=F KetDBF=F FulRan=T
         wScrn=  0.000000 ICntrl=       600 IOpCl=  0 I1Cent=           0 NGrid=           0
         NMat0=    1 NMatS0=   5671 NMatT0=    0 NMatD0=    1 NMtDS0=    0 NMtDT0=    0
 Symmetry not used in FoFCou.
 Two-electron integral symmetry not used.
 Closed shell SCF:
 Using DIIS extrapolation, IDIIS=  1040.
 NGot=  2684354560 LenX=  2668245764 LenY=  2668234087
 Requested convergence on RMS density matrix=1.00D-08 within 128 cycles.
 Requested convergence on MAX density matrix=1.00D-06.
 Requested convergence on             energy=1.00D-06.
 No special actions if energy rises.

 Cycle   1  Pass 1  IDiag  1:
 Inv3:  Mode=1 IEnd=     4523952.
 Iteration    1 A*A^-1 deviation from unit magnitude is 3.11D-15 for   1194.
 Iteration    1 A*A^-1 deviation from orthogonality  is 1.61D-15 for   1228   1227.
 Iteration    1 A^-1*A deviation from unit magnitude is 3.11D-15 for   1209.
 Iteration    1 A^-1*A deviation from orthogonality  is 1.17D-15 for   1228   1227.
 E= -1916.80696450337    
 DIIS: error= 3.36D-02 at cycle   1 NSaved=   1.
 NSaved= 1 IEnMin= 1 EnMin= -1916.80696450337     IErMin= 1 ErrMin= 3.36D-02
 ErrMax= 3.36D-02  0.00D+00 EMaxC= 1.00D-01 BMatC= 7.87D-02 BMatP= 7.87D-02
 IDIUse=3 WtCom= 6.64D-01 WtEn= 3.36D-01
 Coeff-Com:  0.100D+01
 Coeff-En:   0.100D+01
 Coeff:      0.100D+01
 Gap=     0.336 Goal=   None    Shift=    0.000
 GapD=    0.336 DampG=1.000 DampE=0.500 DampFc=0.5000 IDamp=-1.
 Damping current iteration by 5.00D-01
 RMSDP=3.57D-03 MaxDP=7.39D-02              OVMax= 7.74D-02

 Cycle   2  Pass 1  IDiag  1:
 E= -1916.82524152923     Delta-E=       -0.018277025863 Rises=F Damp=T
 DIIS: error= 1.37D-02 at cycle   2 NSaved=   2.
 NSaved= 2 IEnMin= 2 EnMin= -1916.82524152923     IErMin= 2 ErrMin= 1.37D-02
 ErrMax= 1.37D-02  0.00D+00 EMaxC= 1.00D-01 BMatC= 1.21D-02 BMatP= 7.87D-02
 IDIUse=3 WtCom= 8.63D-01 WtEn= 1.37D-01
 Coeff-Com: -0.392D+00 0.139D+01
 Coeff-En:   0.000D+00 0.100D+01
 Coeff:     -0.338D+00 0.134D+01
 Gap=     0.319 Goal=   None    Shift=    0.000
 RMSDP=1.55D-03 MaxDP=2.29D-02 DE=-1.83D-02 OVMax= 4.33D-02

 Cycle   3  Pass 1  IDiag  1:
 E= -1916.83964120104     Delta-E=       -0.014399671814 Rises=F Damp=F
 DIIS: error= 6.00D-03 at cycle   3 NSaved=   3.
 NSaved= 3 IEnMin= 3 EnMin= -1916.83964120104     IErMin= 3 ErrMin= 6.00D-03
 ErrMax= 6.00D-03  0.00D+00 EMaxC= 1.00D-01 BMatC= 3.56D-03 BMatP= 1.21D-02
 IDIUse=3 WtCom= 9.40D-01 WtEn= 6.00D-02
 Coeff-Com: -0.261D+00 0.625D+00 0.636D+00
 Coeff-En:   0.000D+00 0.000D+00 0.100D+01
 Coeff:     -0.245D+00 0.587D+00 0.658D+00
 Gap=     0.322 Goal=   None    Shift=    0.000
 RMSDP=8.32D-04 MaxDP=1.58D-02 DE=-1.44D-02 OVMax= 1.98D-02

 Cycle   4  Pass 1  IDiag  1:
 E= -1916.84322060917     Delta-E=       -0.003579408126 Rises=F Damp=F
 DIIS: error= 1.45D-03 at cycle   4 NSaved=   4.
 NSaved= 4 IEnMin= 4 EnMin= -1916.84322060917     IErMin= 4 ErrMin= 1.45D-03
 ErrMax= 1.45D-03  0.00D+00 EMaxC= 1.00D-01 BMatC= 1.64D-04 BMatP= 3.56D-03
 IDIUse=3 WtCom= 9.86D-01 WtEn= 1.45D-02
 Coeff-Com: -0.607D-01 0.123D+00 0.254D+00 0.683D+00
 Coeff-En:   0.000D+00 0.000D+00 0.000D+00 0.100D+01
 Coeff:     -0.599D-01 0.122D+00 0.251D+00 0.688D+00
 Gap=     0.320 Goal=   None    Shift=    0.000
 RMSDP=1.91D-04 MaxDP=3.35D-03 DE=-3.58D-03 OVMax= 2.91D-03

 Cycle   5  Pass 1  IDiag  1:
 E= -1916.84339590807     Delta-E=       -0.000175298900 Rises=F Damp=F
 DIIS: error= 1.12D-04 at cycle   5 NSaved=   5.
 NSaved= 5 IEnMin= 5 EnMin= -1916.84339590807     IErMin= 5 ErrMin= 1.12D-04
 ErrMax= 1.12D-04  0.00D+00 EMaxC= 1.00D-01 BMatC= 7.61D-07 BMatP= 1.64D-04
 IDIUse=3 WtCom= 9.99D-01 WtEn= 1.12D-03
 Coeff-Com:  0.139D-01-0.309D-01-0.309D-01-0.282D-01 0.108D+01
 Coeff-En:   0.000D+00 0.000D+00 0.000D+00 0.000D+00 0.100D+01
 Coeff:      0.139D-01-0.309D-01-0.309D-01-0.282D-01 0.108D+01
 Gap=     0.320 Goal=   None    Shift=    0.000
 RMSDP=2.12D-05 MaxDP=3.88D-04 DE=-1.75D-04 OVMax= 8.50D-04

 Cycle   6  Pass 1  IDiag  1:
 E= -1916.84339770363     Delta-E=       -0.000001795559 Rises=F Damp=F
 DIIS: error= 2.32D-05 at cycle   6 NSaved=   6.
 NSaved= 6 IEnMin= 6 EnMin= -1916.84339770363     IErMin= 6 ErrMin= 2.32D-05
 ErrMax= 2.32D-05  0.00D+00 EMaxC= 1.00D-01 BMatC= 1.50D-08 BMatP= 7.61D-07
 IDIUse=1 WtCom= 1.00D+00 WtEn= 0.00D+00
 Coeff-Com:  0.165D-02-0.335D-02-0.699D-02-0.194D-01-0.171D-01 0.105D+01
 Coeff:      0.165D-02-0.335D-02-0.699D-02-0.194D-01-0.171D-01 0.105D+01
 Gap=     0.321 Goal=   None    Shift=    0.000
 RMSDP=3.87D-06 MaxDP=5.16D-05 DE=-1.80D-06 OVMax= 1.79D-04

 Cycle   7  Pass 1  IDiag  1:
 E= -1916.84339775298     Delta-E=       -0.000000049351 Rises=F Damp=F
 DIIS: error= 3.68D-06 at cycle   7 NSaved=   7.
 NSaved= 7 IEnMin= 7 EnMin= -1916.84339775298     IErMin= 7 ErrMin= 3.68D-06
 ErrMax= 3.68D-06  0.00D+00 EMaxC= 1.00D-01 BMatC= 4.30D-10 BMatP= 1.50D-08
 IDIUse=1 WtCom= 1.00D+00 WtEn= 0.00D+00
 Coeff-Com: -0.448D-03 0.961D-03 0.109D-02 0.205D-02-0.223D-01-0.489D-01
 Coeff-Com:  0.107D+01
 Coeff:     -0.448D-03 0.961D-03 0.109D-02 0.205D-02-0.223D-01-0.489D-01
 Coeff:      0.107D+01
 Gap=     0.321 Goal=   None    Shift=    0.000
 RMSDP=5.97D-07 MaxDP=6.91D-06 DE=-4.94D-08 OVMax= 2.59D-05

 Cycle   8  Pass 1  IDiag  1:
 E= -1916.84339775419     Delta-E=       -0.000000001206 Rises=F Damp=F
 DIIS: error= 6.25D-07 at cycle   8 NSaved=   8.
 NSaved= 8 IEnMin= 8 EnMin= -1916.84339775419     IErMin= 8 ErrMin= 6.25D-07
 ErrMax= 6.25D-07  0.00D+00 EMaxC= 1.00D-01 BMatC= 3.39D-11 BMatP= 4.30D-10
 IDIUse=1 WtCom= 1.00D+00 WtEn= 0.00D+00
 Coeff-Com: -0.141D-03 0.299D-03 0.451D-03 0.106D-02-0.439D-02-0.454D-01
 Coeff-Com:  0.206D+00 0.842D+00
 Coeff:     -0.141D-03 0.299D-03 0.451D-03 0.106D-02-0.439D-02-0.454D-01
 Coeff:      0.206D+00 0.842D+00
 Gap=     0.321 Goal=   None    Shift=    0.000
 RMSDP=9.76D-08 MaxDP=1.24D-06 DE=-1.21D-09 OVMax= 3.04D-06

 Cycle   9  Pass 1  IDiag  1:
 E= -1916.84339775423     Delta-E=       -0.000000000049 Rises=F Damp=F
 DIIS: error= 1.06D-07 at cycle   9 NSaved=   9.
 NSaved= 9 IEnMin= 9 EnMin= -1916.84339775423     IErMin= 9 ErrMin= 1.06D-07
 ErrMax= 1.06D-07  0.00D+00 EMaxC= 1.00D-01 BMatC= 1.03D-12 BMatP= 3.39D-11
 IDIUse=1 WtCom= 1.00D+00 WtEn= 0.00D+00
 Coeff-Com:  0.119D-04-0.260D-04-0.117D-04 0.986D-05 0.745D-03-0.249D-02
 Coeff-Com: -0.348D-01 0.715D-01 0.965D+00
 Coeff:      0.119D-04-0.260D-04-0.117D-04 0.986D-05 0.745D-03-0.249D-02
 Coeff:     -0.348D-01 0.715D-01 0.965D+00
 Gap=     0.321 Goal=   None    Shift=    0.000
 RMSDP=2.40D-08 MaxDP=4.51D-07 DE=-4.91D-11 OVMax= 5.89D-07

 Cycle  10  Pass 1  IDiag  1:
 E= -1916.84339775424     Delta-E=       -0.000000000003 Rises=F Damp=F
 DIIS: error= 8.24D-08 at cycle  10 NSaved=  10.
 NSaved=10 IEnMin=10 EnMin= -1916.84339775424     IErMin=10 ErrMin= 8.24D-08
 ErrMax= 8.24D-08  0.00D+00 EMaxC= 1.00D-01 BMatC= 4.65D-13 BMatP= 1.03D-12
 IDIUse=1 WtCom= 1.00D+00 WtEn= 0.00D+00
 Coeff-Com:  0.965D-05-0.210D-04-0.168D-04-0.191D-04 0.513D-03-0.330D-03
 Coeff-Com: -0.236D-01 0.182D-01 0.537D+00 0.468D+00
 Coeff:      0.965D-05-0.210D-04-0.168D-04-0.191D-04 0.513D-03-0.330D-03
 Coeff:     -0.236D-01 0.182D-01 0.537D+00 0.468D+00
 Gap=     0.321 Goal=   None    Shift=    0.000
 RMSDP=6.10D-09 MaxDP=1.87D-07 DE=-3.18D-12 OVMax= 2.73D-07

 Error on total polarization charges =  0.00452
 SCF Done:  E(RM052X) =  -1916.84339775     A.U. after   10 cycles
            NFock= 10  Conv=0.61D-08     -V/T= 2.0033
 KE= 1.910548739362D+03 PE=-5.529972529304D+03 EE= 1.212330303641D+03
 SMD-CDS (non-electrostatic) energy       (kcal/mol) =       2.50
 (included in total energy above)
 Leave Link  502 at Thu Jul 10 14:44:14 2025, MaxMem=  2684354560 cpu:              70.1 elap:               4.0
 (Enter /apps/gaussian/g16c01/g16/l601.exe)
 Copying SCF densities to generalized density rwf, IOpCl= 0 IROHF=0.

 **********************************************************************

            Population analysis using the SCF Density.

 **********************************************************************

 Orbital symmetries:
       Occupied  (A) (A) (A) (A) (A) (A) (A) (A) (A) (A) (A) (A)
                 (A) (A) (A) (A) (A) (A) (A) (A) (A) (A) (A) (A)
                 (A) (A) (A) (A) (A) (A) (A) (A) (A) (A) (A) (A)
                 (A) (A) (A) (A)
       Virtual   (A) (A) (A) (A) (A) (A) (A) (A) (A) (A) (A) (A)
                 (A) (A) (A) (A) (A) (A) (A) (A) (A) (A) (A) (A)
                 (A) (A) (A) (A) (A) (A) (A) (A) (A) (A) (A) (A)
                 (A) (A) (A) (A) (A) (A) (A) (A) (A) (A) (A) (A)
                 (A) (A) (A) (A) (A) (A) (A) (A) (A) (A) (A) (A)
                 (A) (A) (A) (A) (A) (A)
 The electronic state is 1-A.
 Alpha  occ. eigenvalues -- -102.80823-102.80823-102.80823-102.80823 -10.72922
 Alpha  occ. eigenvalues --  -10.72811  -9.85313  -9.85311  -9.85310  -9.85309
 Alpha  occ. eigenvalues --   -7.57959  -7.57955  -7.57955  -7.57954  -7.57272
 Alpha  occ. eigenvalues --   -7.57271  -7.57271  -7.57270  -7.57252  -7.57252
 Alpha  occ. eigenvalues --   -7.57250  -7.57250  -1.07966  -1.01805  -0.97281
 Alpha  occ. eigenvalues --   -0.94774  -0.83712  -0.65079  -0.59024  -0.58667
 Alpha  occ. eigenvalues --   -0.53256  -0.50604  -0.45698  -0.43677  -0.42677
 Alpha  occ. eigenvalues --   -0.42168  -0.41649  -0.40877  -0.37969  -0.31679
 Alpha virt. eigenvalues --    0.00373   0.02502   0.03635   0.04245   0.18152
 Alpha virt. eigenvalues --    0.29721   0.30203   0.35453   0.36020   0.42219
 Alpha virt. eigenvalues --    0.43218   0.43410   0.45436   0.46462   0.46756
 Alpha virt. eigenvalues --    0.47499   0.47572   0.49406   0.52471   0.54814
 Alpha virt. eigenvalues --    0.56598   0.58217   0.59420   0.59464   0.65609
 Alpha virt. eigenvalues --    0.74264   0.82030   0.82464   0.82945   0.84209
 Alpha virt. eigenvalues --    0.89237   0.89336   0.90927   0.91164   0.91292
 Alpha virt. eigenvalues --    0.92758   0.93430   0.93499   0.93669   0.95386
 Alpha virt. eigenvalues --    1.06133   1.08215   1.10448   1.10691   1.13483
 Alpha virt. eigenvalues --    1.19372   1.19986   1.26446   1.39865   1.44905
 Alpha virt. eigenvalues --    1.51110   1.66046   1.93591   1.96115   1.99531
 Alpha virt. eigenvalues --    2.05135   2.30749   2.32763   2.58205   2.70481
 Alpha virt. eigenvalues --    3.97221   4.10293   4.29294   4.32340   4.36580
 Alpha virt. eigenvalues --    4.43032
          Condensed to atoms (all electrons):
               1          2          3          4          5          6
     1  C    5.452322   0.416031   0.263652   0.263652  -0.091846  -0.091846
     2  C    0.416031   5.452316  -0.091844  -0.091844   0.263653   0.263652
     3  Cl   0.263652  -0.091844  16.786727  -0.069422   0.002533   0.002374
     4  Cl   0.263652  -0.091844  -0.069422  16.786726   0.002374   0.002533
     5  Cl  -0.091846   0.263653   0.002533   0.002374  16.786721  -0.069421
     6  Cl  -0.091846   0.263652   0.002374   0.002533  -0.069421  16.786725
 Mulliken charges:
               1
     1  C   -0.211965
     2  C   -0.211964
     3  Cl   0.105980
     4  Cl   0.105981
     5  Cl   0.105986
     6  Cl   0.105982
 Sum of Mulliken charges =  -0.00000
 Mulliken charges with hydrogens summed into heavy atoms:
               1
     1  C   -0.211965
     2  C   -0.211964
     3  Cl   0.105980
     4  Cl   0.105981
     5  Cl   0.105986
     6  Cl   0.105982
 Electronic spatial extent (au):  <R**2>=           1291.2633
 Charge=             -0.0000 electrons
 Dipole moment (field-independent basis, Debye):
    X=              0.0001    Y=             -0.0000    Z=             -0.0000  Tot=              0.0001
 Quadrupole moment (field-independent basis, Debye-Ang):
   XX=            -60.3339   YY=            -58.7638   ZZ=            -61.5937
   XY=             -0.0000   XZ=              0.0000   YZ=              0.0001
 Traceless Quadrupole moment (field-independent basis, Debye-Ang):
   XX=             -0.1034   YY=              1.4667   ZZ=             -1.3632
   XY=             -0.0000   XZ=              0.0000   YZ=              0.0001
 Octapole moment (field-independent basis, Debye-Ang**2):
  XXX=              0.0000  YYY=             -0.0000  ZZZ=             -0.0002  XYY=              0.0001
  XXY=             -0.0001  XXZ=             -0.0003  XZZ=              0.0000  YZZ=             -0.0000
  YYZ=             -0.0004  XYZ=              0.0000
 Hexadecapole moment (field-independent basis, Debye-Ang**3):
 XXXX=           -846.3065 YYYY=           -653.7100 ZZZZ=            -66.8750 XXXY=             -0.0002
 XXXZ=             -0.0053 YYYX=             -0.0001 YYYZ=             -0.0053 ZZZX=             -0.0057
 ZZZY=             -0.0065 XXYY=           -225.1585 XXZZ=           -156.7997 YYZZ=           -130.1880
 XXYZ=             -0.0014 YYXZ=             -0.0013 ZZXY=             -0.0000
 N-N= 4.902500885478D+02 E-N=-5.529972529377D+03  KE= 1.910548739362D+03
 No NMR shielding tensors so no spin-rotation constants.
 Leave Link  601 at Thu Jul 10 14:44:14 2025, MaxMem=  2684354560 cpu:               5.3 elap:               0.4
 (Enter /apps/gaussian/g16c01/g16/l9999.exe)
 Unable to Open any file for archive entry.
 1\1\GINC-GADI-CPU-CLX-0135\SP\RM052X\6-31G(d)\C2Cl4\YR9300\10-Jul-2025
 \0\\#P M052X/6-31G* scrf(SMD,solvent=water)\\Cl4_wat_M05-2x\\0,1\C,0,-
 0.669663,-0.000002,0.000014\C,0,0.669679,-0.000004,0.000032\Cl,0,-1.59
 9835,1.457969,0.\Cl,0,-1.599839,-1.457968,-0.000054\Cl,0,1.599836,-1.4
 5797,-0.000013\Cl,0,1.599832,1.457971,0.00005\\Version=ES64L-G16RevC.0
 1\State=1-A\HF=-1916.8433978\RMSD=6.096e-09\Dipole=0.0000225,-0.000012
 ,-0.0000033\Quadrupole=-0.0769044,1.0904325,-1.0135282,-0.0000252,0.00
 00142,0.000042\PG=C01 [X(C2Cl4)]\\@
 The archive entry for this job was punched.


 THE VALUE OF PHILOSOPHY IS, IN FACT, TO BE SOUGHT LARGELY IN ITS
 VERY UNCERTAINTY.  THE MAN WHO HAS NO TINCTURE OF PHILOSOPHY GOES
 THROUGH LIFE IMPRISONED IN THE PREJUDICES DERIVED FROM COMMON SENSE,
 FROM THE HABITUAL BELIEFS OF HIS AGE OR HIS NATION, AND FROM
 CONVICTIONS WHICH HAVE GROWN UP IN HIS MIND WITHOUT THE CO-OPERATION
 OR CONSENT OF HIS DELIBERATE REASON.  TO SUCH A MAN THE WORLD TENDS
 TO BE DEFINITE, FINITE, OBVIOUS; COMMON OBJECTS ROUSE NO QUESTIONS,
 AND UNFAMILIAR POSSIBILITIES ARE CONTEMPTUOUSLY REJECTED.

                             -- BERTRAND RUSSELL
 Job cpu time:       0 days  0 hours  1 minutes 33.7 seconds.
 Elapsed time:       0 days  0 hours  0 minutes  5.9 seconds.
 File lengths (MBytes):  RWF=     36 Int=      0 D2E=      0 Chk=      2 Scr=      1
 Normal termination of Gaussian 16 at Thu Jul 10 14:44:14 2025.
