 Entering Gaussian System, Link 0=g16
 Initial command:
 /apps/gaussian/g16c01/g16/l1.exe "/jobfs/145005820.gadi-pbs/Gau-3603026.inp" -scrdir="/jobfs/145005820.gadi-pbs/"
 Entering Link 1 = /apps/gaussian/g16c01/g16/l1.exe PID=   3603027.
  
 Copyright (c) 1988-2019, Gaussian, Inc.  All Rights Reserved.
  
 This is part of the Gaussian(R) 16 program.  It is based on
 the Gaussian(R) 09 system (copyright 2009, Gaussian, Inc.),
 the Gaussian(R) 03 system (copyright 2003, Gaussian, Inc.),
 the Gaussian(R) 98 system (copyright 1998, Gaussian, Inc.),
 the Gaussian(R) 94 system (copyright 1995, Gaussian, Inc.),
 the Gaussian 92(TM) system (copyright 1992, Gaussian, Inc.),
 the Gaussian 90(TM) system (copyright 1990, Gaussian, Inc.),
 the Gaussian 88(TM) system (copyright 1988, Gaussian, Inc.),
 the Gaussian 86(TM) system (copyright 1986, Carnegie Mellon
 University), and the Gaussian 82(TM) system (copyright 1983,
 Carnegie Mellon University). Gaussian is a federally registered
 trademark of Gaussian, Inc.
  
 This software contains proprietary and confidential information,
 including trade secrets, belonging to Gaussian, Inc.
  
 This software is provided under written license and may be
 used, copied, transmitted, or stored only in accord with that
 written license.
  
 The following legend is applicable only to US Government
 contracts under FAR:
  
                    RESTRICTED RIGHTS LEGEND
  
 Use, reproduction and disclosure by the US Government is
 subject to restrictions as set forth in subparagraphs (a)
 and (c) of the Commercial Computer Software - Restricted
 Rights clause in FAR 52.227-19.
  
 Gaussian, Inc.
 340 Quinnipiac St., Bldg. 40, Wallingford CT 06492
  
  
 ---------------------------------------------------------------
 Warning -- This program may not be used in any manner that
 competes with the business of Gaussian, Inc. or will provide
 assistance to any competitor of Gaussian, Inc.  The licensee
 of this program is prohibited from giving any competitor of
 Gaussian, Inc. access to this program.  By using this program,
 the user acknowledges that Gaussian, Inc. is engaged in the
 business of creating and licensing software in the field of
 computational chemistry and represents and warrants to the
 licensee that it is not a competitor of Gaussian, Inc. and that
 it will not use this program in any manner prohibited above.
 ---------------------------------------------------------------
  

 Cite this work as:
 Gaussian 16, Revision C.01,
 M. J. Frisch, G. W. Trucks, H. B. Schlegel, G. E. Scuseria, 
 M. A. Robb, J. R. Cheeseman, G. Scalmani, V. Barone, 
 G. A. Petersson, H. Nakatsuji, X. Li, M. Caricato, A. V. Marenich, 
 J. Bloino, B. G. Janesko, R. Gomperts, B. Mennucci, H. P. Hratchian, 
 J. V. Ortiz, A. F. Izmaylov, J. L. Sonnenberg, D. Williams-Young, 
 F. Ding, F. Lipparini, F. Egidi, J. Goings, B. Peng, A. Petrone, 
 T. Henderson, D. Ranasinghe, V. G. Zakrzewski, J. Gao, N. Rega, 
 G. Zheng, W. Liang, M. Hada, M. Ehara, K. Toyota, R. Fukuda, 
 J. Hasegawa, M. Ishida, T. Nakajima, Y. Honda, O. Kitao, H. Nakai, 
 T. Vreven, K. Throssell, J. A. Montgomery, Jr., J. E. Peralta, 
 F. Ogliaro, M. J. Bearpark, J. J. Heyd, E. N. Brothers, K. N. Kudin, 
 V. N. Staroverov, T. A. Keith, R. Kobayashi, J. Normand, 
 K. Raghavachari, A. P. Rendell, J. C. Burant, S. S. Iyengar, 
 J. Tomasi, M. Cossi, J. M. Millam, M. Klene, C. Adamo, R. Cammi, 
 J. W. Ochterski, R. L. Martin, K. Morokuma, O. Farkas, 
 J. B. Foresman, and D. J. Fox, Gaussian, Inc., Wallingford CT, 2019.
 
 ******************************************
 Gaussian 16:  ES64L-G16RevC.01  3-Jul-2019
                10-Jul-2025 
 ******************************************
 %chk=Cl4_oct_M05-2x.chk
 %mem=20GB
 %nprocshared=20
 Will use up to   20 processors via shared memory.
 -------------------------------------------
 #P M052X/6-31G* scrf(SMD,solvent=n-octanol)
 -------------------------------------------
 1/38=1,172=1/1;
 2/12=2,17=6,18=5,40=1/2;
 3/5=1,6=6,7=1,11=2,25=1,30=1,70=32201,72=25,74=-38/1,2,3;
 4//1;
 5/5=2,38=5,53=25/2;
 6/7=2,8=2,9=2,10=2,28=1/1;
 99/5=1,9=1/99;
 Leave Link    1 at Thu Jul 10 14:05:50 2025, MaxMem=  2684354560 cpu:               3.0 elap:               0.3
 (Enter /apps/gaussian/g16c01/g16/l101.exe)
 --------------
 Cl4_oct_M05-2x
 --------------
 Symbolic Z-matrix:
 Charge =  0 Multiplicity = 1
 C                    -0.6698   0.         0.00001 
 C                     0.66981  0.         0.00003 
 Cl                   -1.60014   1.45834   0. 
 Cl                   -1.60015  -1.45834  -0.00005 
 Cl                    1.60014  -1.45834  -0.00001 
 Cl                    1.60014   1.45834   0.00005 
 
 ITRead=  0  0  0  0  0  0
 MicOpt= -1 -1 -1 -1 -1 -1
 NAtoms=      6 NQM=        6 NQMF=       0 NMMI=      0 NMMIF=      0
                NMic=       0 NMicF=      0.
                    Isotopes and Nuclear Properties:
 (Nuclear quadrupole moments (NQMom) in fm**2, nuclear magnetic moments (NMagM)
  in nuclear magnetons)

  Atom         1           2           3           4           5           6
 IAtWgt=          12          12          35          35          35          35
 AtmWgt=  12.0000000  12.0000000  34.9688527  34.9688527  34.9688527  34.9688527
 NucSpn=           0           0           3           3           3           3
 AtZEff=  -0.0000000  -0.0000000  -0.0000000  -0.0000000  -0.0000000  -0.0000000
 NQMom=    0.0000000   0.0000000  -8.1650000  -8.1650000  -8.1650000  -8.1650000
 NMagM=    0.0000000   0.0000000   0.8218740   0.8218740   0.8218740   0.8218740
 AtZNuc=   6.0000000   6.0000000  17.0000000  17.0000000  17.0000000  17.0000000
 Leave Link  101 at Thu Jul 10 14:05:50 2025, MaxMem=  2684354560 cpu:               3.3 elap:               0.2
 (Enter /apps/gaussian/g16c01/g16/l202.exe)
                          Input orientation:                          
 ---------------------------------------------------------------------
 Center     Atomic      Atomic             Coordinates (Angstroms)
 Number     Number       Type             X           Y           Z
 ---------------------------------------------------------------------
      1          6           0       -0.669796   -0.000002    0.000011
      2          6           0        0.669813   -0.000004    0.000029
      3         17           0       -1.600143    1.458343    0.000000
      4         17           0       -1.600148   -1.458341   -0.000053
      5         17           0        1.600144   -1.458344   -0.000012
      6         17           0        1.600141    1.458344    0.000051
 ---------------------------------------------------------------------
                    Distance matrix (angstroms):
                    1          2          3          4          5
     1  C    0.000000
     2  C    1.339609   0.000000
     3  Cl   1.729831   2.698050   0.000000
     4  Cl   1.729829   2.698049   2.916684   0.000000
     5  Cl   2.698034   1.729818   4.330000   3.200292   0.000000
     6  Cl   2.698034   1.729823   3.200284   4.330000   2.916688
                    6
     6  Cl   0.000000
 Stoichiometry    C2Cl4
 Framework group  C1[X(C2Cl4)]
 Deg. of freedom    12
 Full point group                 C1      NOp   1
 Largest Abelian subgroup         C1      NOp   1
 Largest concise Abelian subgroup C1      NOp   1
                         Standard orientation:                         
 ---------------------------------------------------------------------
 Center     Atomic      Atomic             Coordinates (Angstroms)
 Number     Number       Type             X           Y           Z
 ---------------------------------------------------------------------
      1          6           0       -0.669796   -0.000002    0.000011
      2          6           0        0.669813   -0.000004    0.000029
      3         17           0       -1.600144    1.458342   -0.000000
      4         17           0       -1.600147   -1.458342   -0.000053
      5         17           0        1.600145   -1.458343   -0.000012
      6         17           0        1.600140    1.458345    0.000051
 ---------------------------------------------------------------------
 Rotational constants (GHZ):           1.6988556           1.3699145           0.7583777
 Leave Link  202 at Thu Jul 10 14:05:50 2025, MaxMem=  2684354560 cpu:               0.9 elap:               0.1
 (Enter /apps/gaussian/g16c01/g16/l301.exe)
 Standard basis: 6-31G(d) (6D, 7F)
 Ernie: Thresh=  0.10000D-02 Tol=  0.10000D-05 Strict=F.
 There are   106 symmetry adapted cartesian basis functions of A   symmetry.
 There are   106 symmetry adapted basis functions of A   symmetry.
   106 basis functions,   264 primitive gaussians,   106 cartesian basis functions
    40 alpha electrons       40 beta electrons
       nuclear repulsion energy       490.1357865245 Hartrees.
 IExCor= 3428 DFT=T Ex+Corr=M052X ExCW=0 ScaHFX=  0.560000
 ScaDFX=  0.440000  0.440000  1.000000  1.000000 ScalE2=  1.000000  1.000000
 IRadAn=      5 IRanWt=     -1 IRanGd=            0 ICorTp=0 IEmpDi=  4
 NAtoms=    6 NActive=    6 NUniq=    6 SFac= 1.00D+00 NAtFMM=   60 NAOKFM=F Big=F
 Integral buffers will be    131072 words long.
 Raffenetti 2 integral format.
 Two-electron integral symmetry is turned on.
 ------------------------------------------------------------------------------
 Polarizable Continuum Model (PCM)
 =================================
 Model                : PCM.
 Atomic radii         : SMD-Coulomb.
 Polarization charges : Total charges.
 Charge compensation  : None.
 Solution method      : On-the-fly selection.
 Cavity type          : VdW (van der Waals Surface) (Alpha=1.000).
 Cavity algorithm     : GePol (No added spheres)
                        Default sphere list used, NSphG=    6.
                        Lebedev-Laikov grids with approx.  5.0 points / Ang**2.
                        Smoothing algorithm: York/Karplus (Gamma=1.0000).
                        Polarization charges: spherical gaussians, with
                                              point-specific exponents (IZeta= 3).
                        Self-potential: point-specific (ISelfS= 7).
                        Self-field    : sphere-specific E.n sum rule (ISelfD= 2).
 Solvent              : n-Octanol, Eps=   9.862900 Eps(inf)=   2.043470
 ------------------------------------------------------------------------------
 Spheres list:
 ISph  on   Nord     Re0    Alpha      Xe            Ye            Ze
    1   C      1    1.8500  1.000     -0.669796     -0.000002      0.000011
    2   C      2    1.8500  1.000      0.669813     -0.000004      0.000029
    3  Cl      3    2.3800  1.000     -1.600144      1.458342     -0.000000
    4  Cl      4    2.3800  1.000     -1.600147     -1.458342     -0.000053
    5  Cl      5    2.3800  1.000      1.600145     -1.458343     -0.000012
    6  Cl      6    2.3800  1.000      1.600140      1.458345      0.000051
 ------------------------------------------------------------------------------
 GePol: Number of generator spheres                  =       6
 GePol: Total number of spheres                      =       6
 GePol: Number of exposed spheres                    =       6 (100.00%)
 GePol: Number of points                             =    1228
 GePol: Average weight of points                     =       0.15
 GePol: Minimum weight of points                     =   0.24D-06
 GePol: Maximum weight of points                     =    0.18138
 GePol: Number of points with low weight             =      20
 GePol: Fraction of low-weight points (<1% of avg)   =       1.63%
 GePol: Cavity surface area                          =    183.444 Ang**2
 GePol: Cavity volume                                =    188.334 Ang**3
 ------------------------------------------------------------------------------
 Atomic radii for non-electrostatic terms: SMD-CDS.
 ------------------------------------------------------------------------------
 PCM non-electrostatic energy =        -0.0034953825 Hartrees.
 Nuclear repulsion after PCM non-electrostatic terms =      490.1322911419 Hartrees.
 Leave Link  301 at Thu Jul 10 14:05:50 2025, MaxMem=  2684354560 cpu:               2.1 elap:               0.1
 (Enter /apps/gaussian/g16c01/g16/l302.exe)
 NPDir=0 NMtPBC=     1 NCelOv=     1 NCel=       1 NClECP=     1 NCelD=      1
         NCelK=      1 NCelE2=     1 NClLst=     1 CellRange=     0.0.
 One-electron integrals computed using PRISM.
 One-electron integral symmetry used in STVInt
 NBasis=   106 RedAO= T EigKep=  3.82D-03  NBF=   106
 NBsUse=   106 1.00D-06 EigRej= -1.00D+00 NBFU=   106
 Precomputing XC quadrature grid using
 IXCGrd= 4 IRadAn=           5 IRanWt=          -1 IRanGd=           0 AccXCQ= 0.00D+00.
 Generated NRdTot=       0 NPtTot=           0 NUsed=           0 NTot=          32
 NSgBfM=   105   105   105   105   105 MxSgAt=     6 MxSgA2=     6.
 Leave Link  302 at Thu Jul 10 14:05:51 2025, MaxMem=  2684354560 cpu:               2.8 elap:               0.2
 (Enter /apps/gaussian/g16c01/g16/l303.exe)
 DipDrv:  MaxL=1.
 Leave Link  303 at Thu Jul 10 14:05:51 2025, MaxMem=  2684354560 cpu:               1.0 elap:               0.1
 (Enter /apps/gaussian/g16c01/g16/l401.exe)
 ExpMin= 1.43D-01 ExpMax= 2.52D+04 ExpMxC= 3.78D+03 IAcc=3 IRadAn=         5 AccDes= 0.00D+00
 Harris functional with IExCor= 1009 and IRadAn=       5 diagonalized for initial guess.
 HarFok:  IExCor= 1009 AccDes= 0.00D+00 IRadAn=         5 IDoV= 1 UseB2=F ITyADJ=14
 ICtDFT=  3500011 ScaDFX=  1.000000  1.000000  1.000000  1.000000
 FoFCou: FMM=F IPFlag=           0 FMFlag=      100000 FMFlg1=           0
         NFxFlg=           0 DoJE=T BraDBF=F KetDBF=T FulRan=T
         wScrn=  0.000000 ICntrl=       500 IOpCl=  0 I1Cent=   200000004 NGrid=           0
         NMat0=    1 NMatS0=      1 NMatT0=    0 NMatD0=    1 NMtDS0=    0 NMtDT0=    0
 Petite list used in FoFCou.
 Harris En= -1915.78716178214    
 JPrj=0 DoOrth=F DoCkMO=F.
 Leave Link  401 at Thu Jul 10 14:05:51 2025, MaxMem=  2684354560 cpu:               4.2 elap:               0.3
 (Enter /apps/gaussian/g16c01/g16/l502.exe)
 Keep R1 ints in memory in canonical form, NReq=34712222.
 FoFCou: FMM=F IPFlag=           0 FMFlag=           0 FMFlg1=           0
         NFxFlg=           0 DoJE=F BraDBF=F KetDBF=F FulRan=T
         wScrn=  0.000000 ICntrl=       600 IOpCl=  0 I1Cent=           0 NGrid=           0
         NMat0=    1 NMatS0=   5671 NMatT0=    0 NMatD0=    1 NMtDS0=    0 NMtDT0=    0
 Symmetry not used in FoFCou.
 Two-electron integral symmetry not used.
 Closed shell SCF:
 Using DIIS extrapolation, IDIIS=  1040.
 NGot=  2684354560 LenX=  2668245764 LenY=  2668234087
 Requested convergence on RMS density matrix=1.00D-08 within 128 cycles.
 Requested convergence on MAX density matrix=1.00D-06.
 Requested convergence on             energy=1.00D-06.
 No special actions if energy rises.

 Cycle   1  Pass 1  IDiag  1:
 Inv3:  Mode=1 IEnd=     4523952.
 Iteration    1 A*A^-1 deviation from unit magnitude is 3.11D-15 for   1197.
 Iteration    1 A*A^-1 deviation from orthogonality  is 1.54D-15 for   1199    979.
 Iteration    1 A^-1*A deviation from unit magnitude is 3.11D-15 for   1197.
 Iteration    1 A^-1*A deviation from orthogonality  is 1.26D-15 for   1199    979.
 E= -1916.81431315521    
 DIIS: error= 3.36D-02 at cycle   1 NSaved=   1.
 NSaved= 1 IEnMin= 1 EnMin= -1916.81431315521     IErMin= 1 ErrMin= 3.36D-02
 ErrMax= 3.36D-02  0.00D+00 EMaxC= 1.00D-01 BMatC= 7.87D-02 BMatP= 7.87D-02
 IDIUse=3 WtCom= 6.64D-01 WtEn= 3.36D-01
 Coeff-Com:  0.100D+01
 Coeff-En:   0.100D+01
 Coeff:      0.100D+01
 Gap=     0.335 Goal=   None    Shift=    0.000
 GapD=    0.335 DampG=1.000 DampE=0.500 DampFc=0.5000 IDamp=-1.
 Damping current iteration by 5.00D-01
 RMSDP=3.57D-03 MaxDP=7.40D-02              OVMax= 7.74D-02

 Cycle   2  Pass 1  IDiag  1:
 E= -1916.83253984561     Delta-E=       -0.018226690400 Rises=F Damp=T
 DIIS: error= 1.37D-02 at cycle   2 NSaved=   2.
 NSaved= 2 IEnMin= 2 EnMin= -1916.83253984561     IErMin= 2 ErrMin= 1.37D-02
 ErrMax= 1.37D-02  0.00D+00 EMaxC= 1.00D-01 BMatC= 1.22D-02 BMatP= 7.87D-02
 IDIUse=3 WtCom= 8.63D-01 WtEn= 1.37D-01
 Coeff-Com: -0.391D+00 0.139D+01
 Coeff-En:   0.000D+00 0.100D+01
 Coeff:     -0.337D+00 0.134D+01
 Gap=     0.319 Goal=   None    Shift=    0.000
 RMSDP=1.58D-03 MaxDP=2.40D-02 DE=-1.82D-02 OVMax= 4.37D-02

 Cycle   3  Pass 1  IDiag  1:
 E= -1916.84679954975     Delta-E=       -0.014259704140 Rises=F Damp=F
 DIIS: error= 6.16D-03 at cycle   3 NSaved=   3.
 NSaved= 3 IEnMin= 3 EnMin= -1916.84679954975     IErMin= 3 ErrMin= 6.16D-03
 ErrMax= 6.16D-03  0.00D+00 EMaxC= 1.00D-01 BMatC= 3.70D-03 BMatP= 1.22D-02
 IDIUse=3 WtCom= 9.38D-01 WtEn= 6.16D-02
 Coeff-Com: -0.263D+00 0.631D+00 0.632D+00
 Coeff-En:   0.000D+00 0.000D+00 0.100D+01
 Coeff:     -0.247D+00 0.593D+00 0.654D+00
 Gap=     0.322 Goal=   None    Shift=    0.000
 RMSDP=8.59D-04 MaxDP=1.66D-02 DE=-1.43D-02 OVMax= 2.02D-02

 Cycle   4  Pass 1  IDiag  1:
 E= -1916.85050548306     Delta-E=       -0.003705933310 Rises=F Damp=F
 DIIS: error= 1.50D-03 at cycle   4 NSaved=   4.
 NSaved= 4 IEnMin= 4 EnMin= -1916.85050548306     IErMin= 4 ErrMin= 1.50D-03
 ErrMax= 1.50D-03  0.00D+00 EMaxC= 1.00D-01 BMatC= 1.77D-04 BMatP= 3.70D-03
 IDIUse=3 WtCom= 9.85D-01 WtEn= 1.50D-02
 Coeff-Com: -0.617D-01 0.125D+00 0.256D+00 0.680D+00
 Coeff-En:   0.000D+00 0.000D+00 0.000D+00 0.100D+01
 Coeff:     -0.607D-01 0.124D+00 0.252D+00 0.685D+00
 Gap=     0.320 Goal=   None    Shift=    0.000
 RMSDP=1.99D-04 MaxDP=3.56D-03 DE=-3.71D-03 OVMax= 3.00D-03

 Cycle   5  Pass 1  IDiag  1:
 E= -1916.85069322856     Delta-E=       -0.000187745493 Rises=F Damp=F
 DIIS: error= 1.13D-04 at cycle   5 NSaved=   5.
 NSaved= 5 IEnMin= 5 EnMin= -1916.85069322856     IErMin= 5 ErrMin= 1.13D-04
 ErrMax= 1.13D-04  0.00D+00 EMaxC= 1.00D-01 BMatC= 7.71D-07 BMatP= 1.77D-04
 IDIUse=3 WtCom= 9.99D-01 WtEn= 1.13D-03
 Coeff-Com:  0.139D-01-0.310D-01-0.307D-01-0.280D-01 0.108D+01
 Coeff-En:   0.000D+00 0.000D+00 0.000D+00 0.000D+00 0.100D+01
 Coeff:      0.139D-01-0.309D-01-0.306D-01-0.280D-01 0.108D+01
 Gap=     0.320 Goal=   None    Shift=    0.000
 RMSDP=2.13D-05 MaxDP=3.86D-04 DE=-1.88D-04 OVMax= 8.52D-04

 Cycle   6  Pass 1  IDiag  1:
 E= -1916.85069504403     Delta-E=       -0.000001815468 Rises=F Damp=F
 DIIS: error= 2.34D-05 at cycle   6 NSaved=   6.
 NSaved= 6 IEnMin= 6 EnMin= -1916.85069504403     IErMin= 6 ErrMin= 2.34D-05
 ErrMax= 2.34D-05  0.00D+00 EMaxC= 1.00D-01 BMatC= 1.58D-08 BMatP= 7.71D-07
 IDIUse=1 WtCom= 1.00D+00 WtEn= 0.00D+00
 Coeff-Com:  0.171D-02-0.349D-02-0.714D-02-0.195D-01-0.149D-01 0.104D+01
 Coeff:      0.171D-02-0.349D-02-0.714D-02-0.195D-01-0.149D-01 0.104D+01
 Gap=     0.320 Goal=   None    Shift=    0.000
 RMSDP=3.92D-06 MaxDP=5.34D-05 DE=-1.82D-06 OVMax= 1.79D-04

 Cycle   7  Pass 1  IDiag  1:
 E= -1916.85069509455     Delta-E=       -0.000000050527 Rises=F Damp=F
 DIIS: error= 3.81D-06 at cycle   7 NSaved=   7.
 NSaved= 7 IEnMin= 7 EnMin= -1916.85069509455     IErMin= 7 ErrMin= 3.81D-06
 ErrMax= 3.81D-06  0.00D+00 EMaxC= 1.00D-01 BMatC= 5.05D-10 BMatP= 1.58D-08
 IDIUse=1 WtCom= 1.00D+00 WtEn= 0.00D+00
 Coeff-Com: -0.402D-03 0.867D-03 0.886D-03 0.145D-02-0.231D-01-0.159D-01
 Coeff-Com:  0.104D+01
 Coeff:     -0.402D-03 0.867D-03 0.886D-03 0.145D-02-0.231D-01-0.159D-01
 Coeff:      0.104D+01
 Gap=     0.320 Goal=   None    Shift=    0.000
 RMSDP=6.22D-07 MaxDP=7.30D-06 DE=-5.05D-08 OVMax= 2.59D-05

 Cycle   8  Pass 1  IDiag  1:
 E= -1916.85069509585     Delta-E=       -0.000000001300 Rises=F Damp=F
 DIIS: error= 7.54D-07 at cycle   8 NSaved=   8.
 NSaved= 8 IEnMin= 8 EnMin= -1916.85069509585     IErMin= 8 ErrMin= 7.54D-07
 ErrMax= 7.54D-07  0.00D+00 EMaxC= 1.00D-01 BMatC= 4.92D-11 BMatP= 5.05D-10
 IDIUse=1 WtCom= 1.00D+00 WtEn= 0.00D+00
 Coeff-Com: -0.161D-03 0.342D-03 0.502D-03 0.116D-02-0.504D-02-0.492D-01
 Coeff-Com:  0.222D+00 0.831D+00
 Coeff:     -0.161D-03 0.342D-03 0.502D-03 0.116D-02-0.504D-02-0.492D-01
 Coeff:      0.222D+00 0.831D+00
 Gap=     0.320 Goal=   None    Shift=    0.000
 RMSDP=1.16D-07 MaxDP=1.40D-06 DE=-1.30D-09 OVMax= 3.66D-06

 Cycle   9  Pass 1  IDiag  1:
 E= -1916.85069509592     Delta-E=       -0.000000000068 Rises=F Damp=F
 DIIS: error= 1.10D-07 at cycle   9 NSaved=   9.
 NSaved= 9 IEnMin= 9 EnMin= -1916.85069509592     IErMin= 9 ErrMin= 1.10D-07
 ErrMax= 1.10D-07  0.00D+00 EMaxC= 1.00D-01 BMatC= 1.01D-12 BMatP= 4.92D-11
 IDIUse=1 WtCom= 1.00D+00 WtEn= 0.00D+00
 Coeff-Com:  0.110D-04-0.242D-04-0.895D-05 0.148D-04 0.714D-03-0.274D-02
 Coeff-Com: -0.316D-01 0.323D-01 0.100D+01
 Coeff:      0.110D-04-0.242D-04-0.895D-05 0.148D-04 0.714D-03-0.274D-02
 Coeff:     -0.316D-01 0.323D-01 0.100D+01
 Gap=     0.320 Goal=   None    Shift=    0.000
 RMSDP=2.54D-08 MaxDP=4.88D-07 DE=-6.78D-11 OVMax= 6.38D-07

 Cycle  10  Pass 1  IDiag  1:
 E= -1916.85069509592     Delta-E=        0.000000000000 Rises=F Damp=F
 DIIS: error= 9.12D-08 at cycle  10 NSaved=  10.
 NSaved=10 IEnMin= 9 EnMin= -1916.85069509592     IErMin=10 ErrMin= 9.12D-08
 ErrMax= 9.12D-08  0.00D+00 EMaxC= 1.00D-01 BMatC= 5.67D-13 BMatP= 1.01D-12
 IDIUse=1 WtCom= 1.00D+00 WtEn= 0.00D+00
 Coeff-Com:  0.997D-05-0.216D-04-0.172D-04-0.199D-04 0.525D-03-0.349D-03
 Coeff-Com: -0.228D-01-0.356D-02 0.565D+00 0.461D+00
 Coeff:      0.997D-05-0.216D-04-0.172D-04-0.199D-04 0.525D-03-0.349D-03
 Coeff:     -0.228D-01-0.356D-02 0.565D+00 0.461D+00
 Gap=     0.320 Goal=   None    Shift=    0.000
 RMSDP=6.65D-09 MaxDP=2.03D-07 DE= 0.00D+00 OVMax= 3.00D-07

 Error on total polarization charges =  0.00434
 SCF Done:  E(RM052X) =  -1916.85069510     A.U. after   10 cycles
            NFock= 10  Conv=0.67D-08     -V/T= 2.0033
 KE= 1.910545902029D+03 PE=-5.529755442433D+03 EE= 1.212226554166D+03
 SMD-CDS (non-electrostatic) energy       (kcal/mol) =      -2.19
 (included in total energy above)
 Leave Link  502 at Thu Jul 10 14:05:55 2025, MaxMem=  2684354560 cpu:              75.2 elap:               4.2
 (Enter /apps/gaussian/g16c01/g16/l601.exe)
 Copying SCF densities to generalized density rwf, IOpCl= 0 IROHF=0.

 **********************************************************************

            Population analysis using the SCF Density.

 **********************************************************************

 Orbital symmetries:
       Occupied  (A) (A) (A) (A) (A) (A) (A) (A) (A) (A) (A) (A)
                 (A) (A) (A) (A) (A) (A) (A) (A) (A) (A) (A) (A)
                 (A) (A) (A) (A) (A) (A) (A) (A) (A) (A) (A) (A)
                 (A) (A) (A) (A)
       Virtual   (A) (A) (A) (A) (A) (A) (A) (A) (A) (A) (A) (A)
                 (A) (A) (A) (A) (A) (A) (A) (A) (A) (A) (A) (A)
                 (A) (A) (A) (A) (A) (A) (A) (A) (A) (A) (A) (A)
                 (A) (A) (A) (A) (A) (A) (A) (A) (A) (A) (A) (A)
                 (A) (A) (A) (A) (A) (A) (A) (A) (A) (A) (A) (A)
                 (A) (A) (A) (A) (A) (A)
 The electronic state is 1-A.
 Alpha  occ. eigenvalues -- -102.80830-102.80830-102.80830-102.80830 -10.72956
 Alpha  occ. eigenvalues --  -10.72845  -9.85319  -9.85317  -9.85317  -9.85316
 Alpha  occ. eigenvalues --   -7.57966  -7.57962  -7.57962  -7.57961  -7.57279
 Alpha  occ. eigenvalues --   -7.57277  -7.57277  -7.57277  -7.57258  -7.57257
 Alpha  occ. eigenvalues --   -7.57256  -7.57256  -1.07965  -1.01802  -0.97281
 Alpha  occ. eigenvalues --   -0.94778  -0.83729  -0.65088  -0.59027  -0.58673
 Alpha  occ. eigenvalues --   -0.53270  -0.50611  -0.45703  -0.43677  -0.42675
 Alpha  occ. eigenvalues --   -0.42171  -0.41648  -0.40881  -0.37972  -0.31701
 Alpha virt. eigenvalues --    0.00335   0.02468   0.03593   0.04213   0.18117
 Alpha virt. eigenvalues --    0.29719   0.30191   0.35458   0.36022   0.42202
 Alpha virt. eigenvalues --    0.43213   0.43418   0.45405   0.46443   0.46735
 Alpha virt. eigenvalues --    0.47501   0.47577   0.49394   0.52483   0.54816
 Alpha virt. eigenvalues --    0.56605   0.58211   0.59376   0.59447   0.65564
 Alpha virt. eigenvalues --    0.74241   0.82029   0.82436   0.82909   0.84203
 Alpha virt. eigenvalues --    0.89237   0.89328   0.90926   0.91162   0.91289
 Alpha virt. eigenvalues --    0.92751   0.93419   0.93482   0.93647   0.95366
 Alpha virt. eigenvalues --    1.06096   1.08175   1.10395   1.10666   1.13450
 Alpha virt. eigenvalues --    1.19344   1.19934   1.26413   1.39830   1.44886
 Alpha virt. eigenvalues --    1.51063   1.66010   1.93534   1.96074   1.99467
 Alpha virt. eigenvalues --    2.05074   2.30669   2.32704   2.58111   2.70438
 Alpha virt. eigenvalues --    3.97164   4.10267   4.29282   4.32318   4.36560
 Alpha virt. eigenvalues --    4.42990
          Condensed to atoms (all electrons):
               1          2          3          4          5          6
     1  C    5.453695   0.414975   0.264132   0.264132  -0.091894  -0.091894
     2  C    0.414975   5.453689  -0.091892  -0.091892   0.264132   0.264132
     3  Cl   0.264132  -0.091892  16.785692  -0.069417   0.002532   0.002382
     4  Cl   0.264132  -0.091892  -0.069417  16.785691   0.002383   0.002532
     5  Cl  -0.091894   0.264132   0.002532   0.002383  16.785686  -0.069416
     6  Cl  -0.091894   0.264132   0.002382   0.002532  -0.069416  16.785690
 Mulliken charges:
               1
     1  C   -0.213146
     2  C   -0.213145
     3  Cl   0.106570
     4  Cl   0.106571
     5  Cl   0.106576
     6  Cl   0.106573
 Sum of Mulliken charges =  -0.00000
 Mulliken charges with hydrogens summed into heavy atoms:
               1
     1  C   -0.213146
     2  C   -0.213145
     3  Cl   0.106570
     4  Cl   0.106571
     5  Cl   0.106576
     6  Cl   0.106573
 Electronic spatial extent (au):  <R**2>=           1291.7507
 Charge=             -0.0000 electrons
 Dipole moment (field-independent basis, Debye):
    X=              0.0001    Y=             -0.0000    Z=             -0.0000  Tot=              0.0001
 Quadrupole moment (field-independent basis, Debye-Ang):
   XX=            -60.3156   YY=            -58.7464   ZZ=            -61.5964
   XY=             -0.0000   XZ=              0.0000   YZ=              0.0001
 Traceless Quadrupole moment (field-independent basis, Debye-Ang):
   XX=             -0.0961   YY=              1.4730   ZZ=             -1.3770
   XY=             -0.0000   XZ=              0.0000   YZ=              0.0001
 Octapole moment (field-independent basis, Debye-Ang**2):
  XXX=              0.0000  YYY=             -0.0000  ZZZ=             -0.0001  XYY=              0.0001
  XXY=             -0.0001  XXZ=             -0.0002  XZZ=              0.0001  YZZ=             -0.0000
  YYZ=             -0.0003  XYZ=              0.0000
 Hexadecapole moment (field-independent basis, Debye-Ang**3):
 XXXX=           -846.4592 YYYY=           -653.9110 ZZZZ=            -66.8791 XXXY=             -0.0001
 XXXZ=             -0.0054 YYYX=             -0.0001 YYYZ=             -0.0052 ZZZX=             -0.0058
 ZZZY=             -0.0064 XXYY=           -225.2088 XXZZ=           -156.8376 YYZZ=           -130.2277
 XXYZ=             -0.0014 YYXZ=             -0.0013 ZZXY=             -0.0000
 N-N= 4.901322911419D+02 E-N=-5.529755442556D+03  KE= 1.910545902029D+03
 No NMR shielding tensors so no spin-rotation constants.
 Leave Link  601 at Thu Jul 10 14:05:56 2025, MaxMem=  2684354560 cpu:              11.3 elap:               0.7
 (Enter /apps/gaussian/g16c01/g16/l9999.exe)
 Unable to Open any file for archive entry.
 1\1\GINC-GADI-CPU-CLX-2653\SP\RM052X\6-31G(d)\C2Cl4\YR9300\10-Jul-2025
 \0\\#P M052X/6-31G* scrf(SMD,solvent=n-octanol)\\Cl4_oct_M05-2x\\0,1\C
 ,0,-0.669796,-0.000002,0.000011\C,0,0.669813,-0.000004,0.000029\Cl,0,-
 1.600143,1.458343,0.\Cl,0,-1.600148,-1.458341,-0.000053\Cl,0,1.600144,
 -1.458344,-0.000012\Cl,0,1.600141,1.458344,0.000051\\Version=ES64L-G16
 RevC.01\State=1-A\HF=-1916.8506951\RMSD=6.653e-09\Dipole=0.000023,-0.0
 000117,-0.0000031\Quadrupole=-0.0714409,1.0951704,-1.0237295,-0.000019
 3,0.0000148,0.000042\PG=C01 [X(C2Cl4)]\\@
 The archive entry for this job was punched.


  THE LARGE PRINT GIVETH,
  AND THE SMALL PRINT TAKETH AWAY.

                     -- TOM WAITS
 Job cpu time:       0 days  0 hours  1 minutes 45.1 seconds.
 Elapsed time:       0 days  0 hours  0 minutes  6.1 seconds.
 File lengths (MBytes):  RWF=     36 Int=      0 D2E=      0 Chk=      2 Scr=      1
 Normal termination of Gaussian 16 at Thu Jul 10 14:05:56 2025.
