 Entering Gaussian System, Link 0=g16
 Initial command:
 /apps/gaussian/g16c01/g16/l1.exe "/jobfs/145005895.gadi-pbs/Gau-3044270.inp" -scrdir="/jobfs/145005895.gadi-pbs/"
 Entering Link 1 = /apps/gaussian/g16c01/g16/l1.exe PID=   3044271.
  
 Copyright (c) 1988-2019, Gaussian, Inc.  All Rights Reserved.
  
 This is part of the Gaussian(R) 16 program.  It is based on
 the Gaussian(R) 09 system (copyright 2009, Gaussian, Inc.),
 the Gaussian(R) 03 system (copyright 2003, Gaussian, Inc.),
 the Gaussian(R) 98 system (copyright 1998, Gaussian, Inc.),
 the Gaussian(R) 94 system (copyright 1995, Gaussian, Inc.),
 the Gaussian 92(TM) system (copyright 1992, Gaussian, Inc.),
 the Gaussian 90(TM) system (copyright 1990, Gaussian, Inc.),
 the Gaussian 88(TM) system (copyright 1988, Gaussian, Inc.),
 the Gaussian 86(TM) system (copyright 1986, Carnegie Mellon
 University), and the Gaussian 82(TM) system (copyright 1983,
 Carnegie Mellon University). Gaussian is a federally registered
 trademark of Gaussian, Inc.
  
 This software contains proprietary and confidential information,
 including trade secrets, belonging to Gaussian, Inc.
  
 This software is provided under written license and may be
 used, copied, transmitted, or stored only in accord with that
 written license.
  
 The following legend is applicable only to US Government
 contracts under FAR:
  
                    RESTRICTED RIGHTS LEGEND
  
 Use, reproduction and disclosure by the US Government is
 subject to restrictions as set forth in subparagraphs (a)
 and (c) of the Commercial Computer Software - Restricted
 Rights clause in FAR 52.227-19.
  
 Gaussian, Inc.
 340 Quinnipiac St., Bldg. 40, Wallingford CT 06492
  
  
 ---------------------------------------------------------------
 Warning -- This program may not be used in any manner that
 competes with the business of Gaussian, Inc. or will provide
 assistance to any competitor of Gaussian, Inc.  The licensee
 of this program is prohibited from giving any competitor of
 Gaussian, Inc. access to this program.  By using this program,
 the user acknowledges that Gaussian, Inc. is engaged in the
 business of creating and licensing software in the field of
 computational chemistry and represents and warrants to the
 licensee that it is not a competitor of Gaussian, Inc. and that
 it will not use this program in any manner prohibited above.
 ---------------------------------------------------------------
  

 Cite this work as:
 Gaussian 16, Revision C.01,
 M. J. Frisch, G. W. Trucks, H. B. Schlegel, G. E. Scuseria, 
 M. A. Robb, J. R. Cheeseman, G. Scalmani, V. Barone, 
 G. A. Petersson, H. Nakatsuji, X. Li, M. Caricato, A. V. Marenich, 
 J. Bloino, B. G. Janesko, R. Gomperts, B. Mennucci, H. P. Hratchian, 
 J. V. Ortiz, A. F. Izmaylov, J. L. Sonnenberg, D. Williams-Young, 
 F. Ding, F. Lipparini, F. Egidi, J. Goings, B. Peng, A. Petrone, 
 T. Henderson, D. Ranasinghe, V. G. Zakrzewski, J. Gao, N. Rega, 
 G. Zheng, W. Liang, M. Hada, M. Ehara, K. Toyota, R. Fukuda, 
 J. Hasegawa, M. Ishida, T. Nakajima, Y. Honda, O. Kitao, H. Nakai, 
 T. Vreven, K. Throssell, J. A. Montgomery, Jr., J. E. Peralta, 
 F. Ogliaro, M. J. Bearpark, J. J. Heyd, E. N. Brothers, K. N. Kudin, 
 V. N. Staroverov, T. A. Keith, R. Kobayashi, J. Normand, 
 K. Raghavachari, A. P. Rendell, J. C. Burant, S. S. Iyengar, 
 J. Tomasi, M. Cossi, J. M. Millam, M. Klene, C. Adamo, R. Cammi, 
 J. W. Ochterski, R. L. Martin, K. Morokuma, O. Farkas, 
 J. B. Foresman, and D. J. Fox, Gaussian, Inc., Wallingford CT, 2019.
 
 ******************************************
 Gaussian 16:  ES64L-G16RevC.01  3-Jul-2019
                10-Jul-2025 
 ******************************************
 %chk=Cl4_oct_vaccum_M05-2x.chk
 %mem=20GB
 %nprocshared=20
 Will use up to   20 processors via shared memory.
 ---------------
 #P M052X/6-31G*
 ---------------
 1/38=1,172=1/1;
 2/12=2,17=6,18=5,40=1/2;
 3/5=1,6=6,7=1,11=2,25=1,30=1,74=-38/1,2,3;
 4//1;
 5/5=2,38=5/2;
 6/7=2,8=2,9=2,10=2,28=1/1;
 99/5=1,9=1/99;
 Leave Link    1 at Thu Jul 10 14:07:04 2025, MaxMem=  2684354560 cpu:               0.8 elap:               0.1
 (Enter /apps/gaussian/g16c01/g16/l101.exe)
 ---------------------
 Cl4_oct_vaccum_M05-2x
 ---------------------
 Symbolic Z-matrix:
 Charge =  0 Multiplicity = 1
 C                    -0.6698   0.         0.00001 
 C                     0.66981  0.         0.00003 
 Cl                   -1.60014   1.45834   0. 
 Cl                   -1.60015  -1.45834  -0.00005 
 Cl                    1.60014  -1.45834  -0.00001 
 Cl                    1.60014   1.45834   0.00005 
 
 ITRead=  0  0  0  0  0  0
 MicOpt= -1 -1 -1 -1 -1 -1
 NAtoms=      6 NQM=        6 NQMF=       0 NMMI=      0 NMMIF=      0
                NMic=       0 NMicF=      0.
                    Isotopes and Nuclear Properties:
 (Nuclear quadrupole moments (NQMom) in fm**2, nuclear magnetic moments (NMagM)
  in nuclear magnetons)

  Atom         1           2           3           4           5           6
 IAtWgt=          12          12          35          35          35          35
 AtmWgt=  12.0000000  12.0000000  34.9688527  34.9688527  34.9688527  34.9688527
 NucSpn=           0           0           3           3           3           3
 AtZEff=  -0.0000000  -0.0000000  -0.0000000  -0.0000000  -0.0000000  -0.0000000
 NQMom=    0.0000000   0.0000000  -8.1650000  -8.1650000  -8.1650000  -8.1650000
 NMagM=    0.0000000   0.0000000   0.8218740   0.8218740   0.8218740   0.8218740
 AtZNuc=   6.0000000   6.0000000  17.0000000  17.0000000  17.0000000  17.0000000
 Leave Link  101 at Thu Jul 10 14:07:04 2025, MaxMem=  2684354560 cpu:               3.1 elap:               0.2
 (Enter /apps/gaussian/g16c01/g16/l202.exe)
                          Input orientation:                          
 ---------------------------------------------------------------------
 Center     Atomic      Atomic             Coordinates (Angstroms)
 Number     Number       Type             X           Y           Z
 ---------------------------------------------------------------------
      1          6           0       -0.669796   -0.000002    0.000011
      2          6           0        0.669813   -0.000004    0.000029
      3         17           0       -1.600143    1.458343    0.000000
      4         17           0       -1.600148   -1.458341   -0.000053
      5         17           0        1.600144   -1.458344   -0.000012
      6         17           0        1.600141    1.458344    0.000051
 ---------------------------------------------------------------------
                    Distance matrix (angstroms):
                    1          2          3          4          5
     1  C    0.000000
     2  C    1.339609   0.000000
     3  Cl   1.729831   2.698050   0.000000
     4  Cl   1.729829   2.698049   2.916684   0.000000
     5  Cl   2.698034   1.729818   4.330000   3.200292   0.000000
     6  Cl   2.698034   1.729823   3.200284   4.330000   2.916688
                    6
     6  Cl   0.000000
 Stoichiometry    C2Cl4
 Framework group  C1[X(C2Cl4)]
 Deg. of freedom    12
 Full point group                 C1      NOp   1
 Largest Abelian subgroup         C1      NOp   1
 Largest concise Abelian subgroup C1      NOp   1
                         Standard orientation:                         
 ---------------------------------------------------------------------
 Center     Atomic      Atomic             Coordinates (Angstroms)
 Number     Number       Type             X           Y           Z
 ---------------------------------------------------------------------
      1          6           0       -0.669796   -0.000002    0.000011
      2          6           0        0.669813   -0.000004    0.000029
      3         17           0       -1.600144    1.458342   -0.000000
      4         17           0       -1.600147   -1.458342   -0.000053
      5         17           0        1.600145   -1.458343   -0.000012
      6         17           0        1.600140    1.458345    0.000051
 ---------------------------------------------------------------------
 Rotational constants (GHZ):           1.6988556           1.3699145           0.7583777
 Leave Link  202 at Thu Jul 10 14:07:05 2025, MaxMem=  2684354560 cpu:               5.7 elap:               0.4
 (Enter /apps/gaussian/g16c01/g16/l301.exe)
 Standard basis: 6-31G(d) (6D, 7F)
 Ernie: Thresh=  0.10000D-02 Tol=  0.10000D-05 Strict=F.
 There are   106 symmetry adapted cartesian basis functions of A   symmetry.
 There are   106 symmetry adapted basis functions of A   symmetry.
   106 basis functions,   264 primitive gaussians,   106 cartesian basis functions
    40 alpha electrons       40 beta electrons
       nuclear repulsion energy       490.1357865245 Hartrees.
 IExCor= 3428 DFT=T Ex+Corr=M052X ExCW=0 ScaHFX=  0.560000
 ScaDFX=  0.440000  0.440000  1.000000  1.000000 ScalE2=  1.000000  1.000000
 IRadAn=      5 IRanWt=     -1 IRanGd=            0 ICorTp=0 IEmpDi=  4
 NAtoms=    6 NActive=    6 NUniq=    6 SFac= 1.00D+00 NAtFMM=   60 NAOKFM=F Big=F
 Integral buffers will be    131072 words long.
 Raffenetti 2 integral format.
 Two-electron integral symmetry is turned on.
 Leave Link  301 at Thu Jul 10 14:07:05 2025, MaxMem=  2684354560 cpu:               6.5 elap:               0.5
 (Enter /apps/gaussian/g16c01/g16/l302.exe)
 NPDir=0 NMtPBC=     1 NCelOv=     1 NCel=       1 NClECP=     1 NCelD=      1
         NCelK=      1 NCelE2=     1 NClLst=     1 CellRange=     0.0.
 One-electron integrals computed using PRISM.
 One-electron integral symmetry used in STVInt
 NBasis=   106 RedAO= T EigKep=  3.82D-03  NBF=   106
 NBsUse=   106 1.00D-06 EigRej= -1.00D+00 NBFU=   106
 Precomputing XC quadrature grid using
 IXCGrd= 4 IRadAn=           5 IRanWt=          -1 IRanGd=           0 AccXCQ= 0.00D+00.
 Generated NRdTot=       0 NPtTot=           0 NUsed=           0 NTot=          32
 NSgBfM=   105   105   105   105   105 MxSgAt=     6 MxSgA2=     6.
 Leave Link  302 at Thu Jul 10 14:07:07 2025, MaxMem=  2684354560 cpu:              23.0 elap:               1.7
 (Enter /apps/gaussian/g16c01/g16/l303.exe)
 DipDrv:  MaxL=1.
 Leave Link  303 at Thu Jul 10 14:07:08 2025, MaxMem=  2684354560 cpu:               7.7 elap:               0.6
 (Enter /apps/gaussian/g16c01/g16/l401.exe)
 ExpMin= 1.43D-01 ExpMax= 2.52D+04 ExpMxC= 3.78D+03 IAcc=3 IRadAn=         5 AccDes= 0.00D+00
 Harris functional with IExCor= 1009 and IRadAn=       5 diagonalized for initial guess.
 HarFok:  IExCor= 1009 AccDes= 0.00D+00 IRadAn=         5 IDoV= 1 UseB2=F ITyADJ=14
 ICtDFT=  3500011 ScaDFX=  1.000000  1.000000  1.000000  1.000000
 FoFCou: FMM=F IPFlag=           0 FMFlag=      100000 FMFlg1=           0
         NFxFlg=           0 DoJE=T BraDBF=F KetDBF=T FulRan=T
         wScrn=  0.000000 ICntrl=       500 IOpCl=  0 I1Cent=   200000004 NGrid=           0
         NMat0=    1 NMatS0=      1 NMatT0=    0 NMatD0=    1 NMtDS0=    0 NMtDT0=    0
 Petite list used in FoFCou.
 Harris En= -1915.78366639960    
 JPrj=0 DoOrth=F DoCkMO=F.
 Leave Link  401 at Thu Jul 10 14:07:09 2025, MaxMem=  2684354560 cpu:              11.9 elap:               0.9
 (Enter /apps/gaussian/g16c01/g16/l502.exe)
 Keep R1 ints in memory in canonical form, NReq=34712222.
 FoFCou: FMM=F IPFlag=           0 FMFlag=           0 FMFlg1=           0
         NFxFlg=           0 DoJE=F BraDBF=F KetDBF=F FulRan=T
         wScrn=  0.000000 ICntrl=       600 IOpCl=  0 I1Cent=           0 NGrid=           0
         NMat0=    1 NMatS0=   5671 NMatT0=    0 NMatD0=    1 NMtDS0=    0 NMtDT0=    0
 Symmetry not used in FoFCou.
 Two-electron integral symmetry not used.
 Closed shell SCF:
 Using DIIS extrapolation, IDIIS=  1040.
 NGot=  2684354560 LenX=  2668245764 LenY=  2668234087
 Requested convergence on RMS density matrix=1.00D-08 within 128 cycles.
 Requested convergence on MAX density matrix=1.00D-06.
 Requested convergence on             energy=1.00D-06.
 No special actions if energy rises.
 Integral accuracy reduced to 1.0D-05 until final iterations.

 Cycle   1  Pass 0  IDiag  1:
 E= -1916.80999419879    
 DIIS: error= 3.36D-02 at cycle   1 NSaved=   1.
 NSaved= 1 IEnMin= 1 EnMin= -1916.80999419879     IErMin= 1 ErrMin= 3.36D-02
 ErrMax= 3.36D-02  0.00D+00 EMaxC= 1.00D-01 BMatC= 7.86D-02 BMatP= 7.86D-02
 IDIUse=3 WtCom= 6.64D-01 WtEn= 3.36D-01
 Coeff-Com:  0.100D+01
 Coeff-En:   0.100D+01
 Coeff:      0.100D+01
 Gap=     0.335 Goal=   None    Shift=    0.000
 GapD=    0.335 DampG=1.000 DampE=0.500 DampFc=0.5000 IDamp=-1.
 Damping current iteration by 5.00D-01
 RMSDP=3.56D-03 MaxDP=7.36D-02              OVMax= 7.79D-02

 Cycle   2  Pass 0  IDiag  1:
 E= -1916.82800284029     Delta-E=       -0.018008641503 Rises=F Damp=T
 DIIS: error= 1.37D-02 at cycle   2 NSaved=   2.
 NSaved= 2 IEnMin= 2 EnMin= -1916.82800284029     IErMin= 2 ErrMin= 1.37D-02
 ErrMax= 1.37D-02  0.00D+00 EMaxC= 1.00D-01 BMatC= 1.23D-02 BMatP= 7.86D-02
 IDIUse=3 WtCom= 8.63D-01 WtEn= 1.37D-01
 Coeff-Com: -0.380D+00 0.138D+01
 Coeff-En:   0.000D+00 0.100D+01
 Coeff:     -0.328D+00 0.133D+01
 Gap=     0.318 Goal=   None    Shift=    0.000
 RMSDP=1.73D-03 MaxDP=2.91D-02 DE=-1.80D-02 OVMax= 4.58D-02

 Cycle   3  Pass 0  IDiag  1:
 E= -1916.84153157863     Delta-E=       -0.013528738339 Rises=F Damp=F
 DIIS: error= 7.03D-03 at cycle   3 NSaved=   3.
 NSaved= 3 IEnMin= 3 EnMin= -1916.84153157863     IErMin= 3 ErrMin= 7.03D-03
 ErrMax= 7.03D-03  0.00D+00 EMaxC= 1.00D-01 BMatC= 4.54D-03 BMatP= 1.23D-02
 IDIUse=3 WtCom= 9.30D-01 WtEn= 7.03D-02
 Coeff-Com: -0.273D+00 0.662D+00 0.611D+00
 Coeff-En:   0.000D+00 0.000D+00 0.100D+01
 Coeff:     -0.254D+00 0.616D+00 0.638D+00
 Gap=     0.322 Goal=   None    Shift=    0.000
 RMSDP=1.01D-03 MaxDP=2.11D-02 DE=-1.35D-02 OVMax= 2.24D-02

 Cycle   4  Pass 0  IDiag  1:
 E= -1916.84598388218     Delta-E=       -0.004452303557 Rises=F Damp=F
 DIIS: error= 1.81D-03 at cycle   4 NSaved=   4.
 NSaved= 4 IEnMin= 4 EnMin= -1916.84598388218     IErMin= 4 ErrMin= 1.81D-03
 ErrMax= 1.81D-03  0.00D+00 EMaxC= 1.00D-01 BMatC= 2.54D-04 BMatP= 4.54D-03
 IDIUse=3 WtCom= 9.82D-01 WtEn= 1.81D-02
 Coeff-Com: -0.658D-01 0.135D+00 0.265D+00 0.666D+00
 Coeff-En:   0.000D+00 0.000D+00 0.000D+00 0.100D+01
 Coeff:     -0.646D-01 0.132D+00 0.260D+00 0.672D+00
 Gap=     0.320 Goal=   None    Shift=    0.000
 RMSDP=2.45D-04 MaxDP=4.73D-03 DE=-4.45D-03 OVMax= 3.49D-03

 Cycle   5  Pass 0  IDiag  1:
 E= -1916.84624864104     Delta-E=       -0.000264758852 Rises=F Damp=F
 DIIS: error= 1.18D-04 at cycle   5 NSaved=   5.
 NSaved= 5 IEnMin= 5 EnMin= -1916.84624864104     IErMin= 5 ErrMin= 1.18D-04
 ErrMax= 1.18D-04  0.00D+00 EMaxC= 1.00D-01 BMatC= 8.23D-07 BMatP= 2.54D-04
 IDIUse=3 WtCom= 9.99D-01 WtEn= 1.18D-03
 Coeff-Com:  0.137D-01-0.306D-01-0.285D-01-0.234D-01 0.107D+01
 Coeff-En:   0.000D+00 0.000D+00 0.000D+00 0.000D+00 0.100D+01
 Coeff:      0.137D-01-0.306D-01-0.284D-01-0.234D-01 0.107D+01
 Gap=     0.320 Goal=   None    Shift=    0.000
 RMSDP=2.13D-05 MaxDP=3.72D-04 DE=-2.65D-04 OVMax= 8.60D-04

 Cycle   6  Pass 0  IDiag  1:
 E= -1916.84625054792     Delta-E=       -0.000001906882 Rises=F Damp=F
 DIIS: error= 2.41D-05 at cycle   6 NSaved=   6.
 NSaved= 6 IEnMin= 6 EnMin= -1916.84625054792     IErMin= 6 ErrMin= 2.41D-05
 ErrMax= 2.41D-05  0.00D+00 EMaxC= 1.00D-01 BMatC= 2.30D-08 BMatP= 8.23D-07
 IDIUse=1 WtCom= 1.00D+00 WtEn= 0.00D+00
 Coeff-Com:  0.241D-02-0.499D-02-0.871D-02-0.211D-01 0.230D-01 0.101D+01
 Coeff:      0.241D-02-0.499D-02-0.871D-02-0.211D-01 0.230D-01 0.101D+01
 Gap=     0.320 Goal=   None    Shift=    0.000
 RMSDP=4.26D-06 MaxDP=6.07D-05 DE=-1.91D-06 OVMax= 1.77D-04

 Initial convergence to 1.0D-05 achieved.  Increase integral accuracy.
 Cycle   7  Pass 1  IDiag  1:
 E= -1916.84638391856     Delta-E=       -0.000133370645 Rises=F Damp=F
 DIIS: error= 8.01D-05 at cycle   1 NSaved=   1.
 NSaved= 1 IEnMin= 1 EnMin= -1916.84638391856     IErMin= 1 ErrMin= 8.01D-05
 ErrMax= 8.01D-05  0.00D+00 EMaxC= 1.00D-01 BMatC= 6.61D-07 BMatP= 6.61D-07
 IDIUse=1 WtCom= 1.00D+00 WtEn= 0.00D+00
 Coeff-Com:  0.100D+01
 Coeff:      0.100D+01
 Gap=     0.320 Goal=   None    Shift=    0.000
 RMSDP=4.26D-06 MaxDP=6.07D-05 DE=-1.33D-04 OVMax= 1.93D-04

 Cycle   8  Pass 1  IDiag  1:
 E= -1916.84638464650     Delta-E=       -0.000000727935 Rises=F Damp=F
 DIIS: error= 2.54D-05 at cycle   2 NSaved=   2.
 NSaved= 2 IEnMin= 2 EnMin= -1916.84638464650     IErMin= 2 ErrMin= 2.54D-05
 ErrMax= 2.54D-05  0.00D+00 EMaxC= 1.00D-01 BMatC= 6.24D-08 BMatP= 6.61D-07
 IDIUse=1 WtCom= 1.00D+00 WtEn= 0.00D+00
 Coeff-Com:  0.141D+00 0.859D+00
 Coeff:      0.141D+00 0.859D+00
 Gap=     0.320 Goal=   None    Shift=    0.000
 RMSDP=5.28D-06 MaxDP=1.38D-04 DE=-7.28D-07 OVMax= 6.53D-05

 Cycle   9  Pass 1  IDiag  1:
 E= -1916.84638470378     Delta-E=       -0.000000057278 Rises=F Damp=F
 DIIS: error= 6.97D-06 at cycle   3 NSaved=   3.
 NSaved= 3 IEnMin= 3 EnMin= -1916.84638470378     IErMin= 3 ErrMin= 6.97D-06
 ErrMax= 6.97D-06  0.00D+00 EMaxC= 1.00D-01 BMatC= 7.79D-09 BMatP= 6.24D-08
 IDIUse=1 WtCom= 1.00D+00 WtEn= 0.00D+00
 Coeff-Com: -0.285D-01 0.202D+00 0.827D+00
 Coeff:     -0.285D-01 0.202D+00 0.827D+00
 Gap=     0.320 Goal=   None    Shift=    0.000
 RMSDP=1.72D-06 MaxDP=2.75D-05 DE=-5.73D-08 OVMax= 3.96D-05

 Cycle  10  Pass 1  IDiag  1:
 E= -1916.84638471028     Delta-E=       -0.000000006502 Rises=F Damp=F
 DIIS: error= 4.59D-06 at cycle   4 NSaved=   4.
 NSaved= 4 IEnMin= 4 EnMin= -1916.84638471028     IErMin= 4 ErrMin= 4.59D-06
 ErrMax= 4.59D-06  0.00D+00 EMaxC= 1.00D-01 BMatC= 2.04D-09 BMatP= 7.79D-09
 IDIUse=1 WtCom= 1.00D+00 WtEn= 0.00D+00
 Coeff-Com: -0.188D-01 0.573D-01 0.409D+00 0.553D+00
 Coeff:     -0.188D-01 0.573D-01 0.409D+00 0.553D+00
 Gap=     0.320 Goal=   None    Shift=    0.000
 RMSDP=5.89D-07 MaxDP=1.18D-05 DE=-6.50D-09 OVMax= 1.42D-05

 Cycle  11  Pass 1  IDiag  1:
 E= -1916.84638471236     Delta-E=       -0.000000002083 Rises=F Damp=F
 DIIS: error= 1.30D-06 at cycle   5 NSaved=   5.
 NSaved= 5 IEnMin= 5 EnMin= -1916.84638471236     IErMin= 5 ErrMin= 1.30D-06
 ErrMax= 1.30D-06  0.00D+00 EMaxC= 1.00D-01 BMatC= 8.73D-11 BMatP= 2.04D-09
 IDIUse=1 WtCom= 1.00D+00 WtEn= 0.00D+00
 Coeff-Com: -0.144D-02-0.965D-02 0.872D-02 0.163D+00 0.840D+00
 Coeff:     -0.144D-02-0.965D-02 0.872D-02 0.163D+00 0.840D+00
 Gap=     0.320 Goal=   None    Shift=    0.000
 RMSDP=2.03D-07 MaxDP=3.27D-06 DE=-2.08D-09 OVMax= 4.84D-06

 Cycle  12  Pass 1  IDiag  1:
 E= -1916.84638471247     Delta-E=       -0.000000000111 Rises=F Damp=F
 DIIS: error= 1.74D-07 at cycle   6 NSaved=   6.
 NSaved= 6 IEnMin= 6 EnMin= -1916.84638471247     IErMin= 6 ErrMin= 1.74D-07
 ErrMax= 1.74D-07  0.00D+00 EMaxC= 1.00D-01 BMatC= 2.94D-12 BMatP= 8.73D-11
 IDIUse=1 WtCom= 1.00D+00 WtEn= 0.00D+00
 Coeff-Com:  0.977D-03-0.691D-02-0.287D-01-0.101D-01 0.154D+00 0.891D+00
 Coeff:      0.977D-03-0.691D-02-0.287D-01-0.101D-01 0.154D+00 0.891D+00
 Gap=     0.320 Goal=   None    Shift=    0.000
 RMSDP=3.94D-08 MaxDP=6.03D-07 DE=-1.11D-10 OVMax= 9.00D-07

 Cycle  13  Pass 1  IDiag  1:
 E= -1916.84638471248     Delta-E=       -0.000000000006 Rises=F Damp=F
 DIIS: error= 3.52D-08 at cycle   7 NSaved=   7.
 NSaved= 7 IEnMin= 7 EnMin= -1916.84638471248     IErMin= 7 ErrMin= 3.52D-08
 ErrMax= 3.52D-08  0.00D+00 EMaxC= 1.00D-01 BMatC= 4.61D-14 BMatP= 2.94D-12
 IDIUse=1 WtCom= 1.00D+00 WtEn= 0.00D+00
 Coeff-Com:  0.388D-04 0.126D-03-0.923D-04-0.375D-02-0.236D-01-0.142D-01
 Coeff-Com:  0.104D+01
 Coeff:      0.388D-04 0.126D-03-0.923D-04-0.375D-02-0.236D-01-0.142D-01
 Coeff:      0.104D+01
 Gap=     0.320 Goal=   None    Shift=    0.000
 RMSDP=6.35D-09 MaxDP=1.02D-07 DE=-5.91D-12 OVMax= 2.45D-07

 SCF Done:  E(RM052X) =  -1916.84638471     A.U. after   13 cycles
            NFock= 13  Conv=0.64D-08     -V/T= 2.0033
 KE= 1.910550532066D+03 PE=-5.529779296413D+03 EE= 1.212246593111D+03
 Leave Link  502 at Thu Jul 10 14:07:12 2025, MaxMem=  2684354560 cpu:              57.5 elap:               3.7
 (Enter /apps/gaussian/g16c01/g16/l601.exe)
 Copying SCF densities to generalized density rwf, IOpCl= 0 IROHF=0.

 **********************************************************************

            Population analysis using the SCF Density.

 **********************************************************************

 Orbital symmetries:
       Occupied  (A) (A) (A) (A) (A) (A) (A) (A) (A) (A) (A) (A)
                 (A) (A) (A) (A) (A) (A) (A) (A) (A) (A) (A) (A)
                 (A) (A) (A) (A) (A) (A) (A) (A) (A) (A) (A) (A)
                 (A) (A) (A) (A)
       Virtual   (A) (A) (A) (A) (A) (A) (A) (A) (A) (A) (A) (A)
                 (A) (A) (A) (A) (A) (A) (A) (A) (A) (A) (A) (A)
                 (A) (A) (A) (A) (A) (A) (A) (A) (A) (A) (A) (A)
                 (A) (A) (A) (A) (A) (A) (A) (A) (A) (A) (A) (A)
                 (A) (A) (A) (A) (A) (A) (A) (A) (A) (A) (A) (A)
                 (A) (A) (A) (A) (A) (A)
 The electronic state is 1-A.
 Alpha  occ. eigenvalues -- -102.80870-102.80870-102.80870-102.80870 -10.73080
 Alpha  occ. eigenvalues --  -10.72969  -9.85362  -9.85360  -9.85360  -9.85359
 Alpha  occ. eigenvalues --   -7.58011  -7.58007  -7.58007  -7.58005  -7.57322
 Alpha  occ. eigenvalues --   -7.57320  -7.57320  -7.57319  -7.57299  -7.57299
 Alpha  occ. eigenvalues --   -7.57297  -7.57297  -1.08055  -1.01863  -0.97335
 Alpha  occ. eigenvalues --   -0.94828  -0.83834  -0.65170  -0.59104  -0.58762
 Alpha  occ. eigenvalues --   -0.53394  -0.50696  -0.45761  -0.43709  -0.42694
 Alpha  occ. eigenvalues --   -0.42203  -0.41665  -0.40912  -0.37994  -0.31796
 Alpha virt. eigenvalues --    0.00191   0.02345   0.03473   0.04108   0.17964
 Alpha virt. eigenvalues --    0.29699   0.30130   0.35463   0.36032   0.42040
 Alpha virt. eigenvalues --    0.43177   0.43434   0.45228   0.46344   0.46615
 Alpha virt. eigenvalues --    0.47497   0.47582   0.49296   0.52485   0.54818
 Alpha virt. eigenvalues --    0.56583   0.58182   0.59181   0.59401   0.65405
 Alpha virt. eigenvalues --    0.74168   0.81960   0.82283   0.82831   0.84138
 Alpha virt. eigenvalues --    0.89191   0.89289   0.90896   0.91131   0.91260
 Alpha virt. eigenvalues --    0.92722   0.93383   0.93439   0.93572   0.95270
 Alpha virt. eigenvalues --    1.06014   1.08098   1.10295   1.10585   1.13336
 Alpha virt. eigenvalues --    1.19215   1.19846   1.26341   1.39738   1.44772
 Alpha virt. eigenvalues --    1.50927   1.65882   1.93404   1.95955   1.99364
 Alpha virt. eigenvalues --    2.04936   2.30537   2.32558   2.58006   2.70321
 Alpha virt. eigenvalues --    3.97039   4.10160   4.29234   4.32247   4.36510
 Alpha virt. eigenvalues --    4.42913
          Condensed to atoms (all electrons):
               1          2          3          4          5          6
     1  C    5.458317   0.410851   0.266990   0.266990  -0.092593  -0.092593
     2  C    0.410851   5.458313  -0.092591  -0.092591   0.266990   0.266990
     3  Cl   0.266990  -0.092591  16.781578  -0.069910   0.002563   0.002390
     4  Cl   0.266990  -0.092591  -0.069910  16.781577   0.002390   0.002563
     5  Cl  -0.092593   0.266990   0.002563   0.002390  16.781573  -0.069908
     6  Cl  -0.092593   0.266990   0.002390   0.002563  -0.069908  16.781577
 Mulliken charges:
               1
     1  C   -0.217963
     2  C   -0.217963
     3  Cl   0.108979
     4  Cl   0.108980
     5  Cl   0.108985
     6  Cl   0.108982
 Sum of Mulliken charges =  -0.00000
 Mulliken charges with hydrogens summed into heavy atoms:
               1
     1  C   -0.217963
     2  C   -0.217963
     3  Cl   0.108979
     4  Cl   0.108980
     5  Cl   0.108985
     6  Cl   0.108982
 Electronic spatial extent (au):  <R**2>=           1291.6798
 Charge=             -0.0000 electrons
 Dipole moment (field-independent basis, Debye):
    X=              0.0000    Y=             -0.0000    Z=             -0.0000  Tot=              0.0001
 Quadrupole moment (field-independent basis, Debye-Ang):
   XX=            -60.2537   YY=            -58.7205   ZZ=            -61.5889
   XY=             -0.0000   XZ=              0.0000   YZ=              0.0001
 Traceless Quadrupole moment (field-independent basis, Debye-Ang):
   XX=             -0.0660   YY=              1.4672   ZZ=             -1.4012
   XY=             -0.0000   XZ=              0.0000   YZ=              0.0001
 Octapole moment (field-independent basis, Debye-Ang**2):
  XXX=             -0.0000  YYY=             -0.0000  ZZZ=             -0.0002  XYY=              0.0001
  XXY=             -0.0001  XXZ=             -0.0002  XZZ=              0.0000  YZZ=             -0.0000
  YYZ=             -0.0003  XYZ=              0.0000
 Hexadecapole moment (field-independent basis, Debye-Ang**3):
 XXXX=           -845.9277 YYYY=           -653.8533 ZZZZ=            -66.8564 XXXY=             -0.0001
 XXXZ=             -0.0054 YYYX=             -0.0001 YYYZ=             -0.0052 ZZZX=             -0.0058
 ZZZY=             -0.0064 XXYY=           -225.2890 XXZZ=           -156.7513 YYZZ=           -130.1576
 XXYZ=             -0.0014 YYXZ=             -0.0013 ZZXY=             -0.0000
 N-N= 4.901357865245D+02 E-N=-5.529779295237D+03  KE= 1.910550532066D+03
 No NMR shielding tensors so no spin-rotation constants.
 Leave Link  601 at Thu Jul 10 14:07:14 2025, MaxMem=  2684354560 cpu:              21.5 elap:               1.5
 (Enter /apps/gaussian/g16c01/g16/l9999.exe)
 Unable to Open any file for archive entry.
 1\1\GINC-GADI-CPU-CLX-1067\SP\RM052X\6-31G(d)\C2Cl4\YR9300\10-Jul-2025
 \0\\#P M052X/6-31G*\\Cl4_oct_vaccum_M05-2x\\0,1\C,0,-0.669796,-0.00000
 2,0.000011\C,0,0.669813,-0.000004,0.000029\Cl,0,-1.600143,1.458343,0.\
 Cl,0,-1.600148,-1.458341,-0.000053\Cl,0,1.600144,-1.458344,-0.000012\C
 l,0,1.600141,1.458344,0.000051\\Version=ES64L-G16RevC.01\State=1-A\HF=
 -1916.8463847\RMSD=6.350e-09\Dipole=0.0000182,-0.0000097,-0.0000035\Qu
 adrupole=-0.0490531,1.0908382,-1.0417852,-0.0000176,0.0000153,0.000042
 3\PG=C01 [X(C2Cl4)]\\@
 The archive entry for this job was punched.


 KEEP CLOSE TO NATURES HEART, YOURSELF;
 AND BREAK CLEAR AWAY, ONCE IN A WHILE, AND
 CLIMB A MOUNTAIN OR SPEND A WEEK IN THE
 WOODS.  WASH YOUR SPIRIT CLEAN...
                                         -- JOHN MUIR
 Job cpu time:       0 days  0 hours  2 minutes 19.0 seconds.
 Elapsed time:       0 days  0 hours  0 minutes  9.6 seconds.
 File lengths (MBytes):  RWF=     10 Int=      0 D2E=      0 Chk=      2 Scr=      1
 Normal termination of Gaussian 16 at Thu Jul 10 14:07:14 2025.
