 Entering Gaussian System, Link 0=g16
 Initial command:
 /apps/gaussian/g16c01/g16/l1.exe "/jobfs/145007479.gadi-pbs/Gau-2987711.inp" -scrdir="/jobfs/145007479.gadi-pbs/"
 Entering Link 1 = /apps/gaussian/g16c01/g16/l1.exe PID=   2987712.
  
 Copyright (c) 1988-2019, Gaussian, Inc.  All Rights Reserved.
  
 This is part of the Gaussian(R) 16 program.  It is based on
 the Gaussian(R) 09 system (copyright 2009, Gaussian, Inc.),
 the Gaussian(R) 03 system (copyright 2003, Gaussian, Inc.),
 the Gaussian(R) 98 system (copyright 1998, Gaussian, Inc.),
 the Gaussian(R) 94 system (copyright 1995, Gaussian, Inc.),
 the Gaussian 92(TM) system (copyright 1992, Gaussian, Inc.),
 the Gaussian 90(TM) system (copyright 1990, Gaussian, Inc.),
 the Gaussian 88(TM) system (copyright 1988, Gaussian, Inc.),
 the Gaussian 86(TM) system (copyright 1986, Carnegie Mellon
 University), and the Gaussian 82(TM) system (copyright 1983,
 Carnegie Mellon University). Gaussian is a federally registered
 trademark of Gaussian, Inc.
  
 This software contains proprietary and confidential information,
 including trade secrets, belonging to Gaussian, Inc.
  
 This software is provided under written license and may be
 used, copied, transmitted, or stored only in accord with that
 written license.
  
 The following legend is applicable only to US Government
 contracts under FAR:
  
                    RESTRICTED RIGHTS LEGEND
  
 Use, reproduction and disclosure by the US Government is
 subject to restrictions as set forth in subparagraphs (a)
 and (c) of the Commercial Computer Software - Restricted
 Rights clause in FAR 52.227-19.
  
 Gaussian, Inc.
 340 Quinnipiac St., Bldg. 40, Wallingford CT 06492
  
  
 ---------------------------------------------------------------
 Warning -- This program may not be used in any manner that
 competes with the business of Gaussian, Inc. or will provide
 assistance to any competitor of Gaussian, Inc.  The licensee
 of this program is prohibited from giving any competitor of
 Gaussian, Inc. access to this program.  By using this program,
 the user acknowledges that Gaussian, Inc. is engaged in the
 business of creating and licensing software in the field of
 computational chemistry and represents and warrants to the
 licensee that it is not a competitor of Gaussian, Inc. and that
 it will not use this program in any manner prohibited above.
 ---------------------------------------------------------------
  

 Cite this work as:
 Gaussian 16, Revision C.01,
 M. J. Frisch, G. W. Trucks, H. B. Schlegel, G. E. Scuseria, 
 M. A. Robb, J. R. Cheeseman, G. Scalmani, V. Barone, 
 G. A. Petersson, H. Nakatsuji, X. Li, M. Caricato, A. V. Marenich, 
 J. Bloino, B. G. Janesko, R. Gomperts, B. Mennucci, H. P. Hratchian, 
 J. V. Ortiz, A. F. Izmaylov, J. L. Sonnenberg, D. Williams-Young, 
 F. Ding, F. Lipparini, F. Egidi, J. Goings, B. Peng, A. Petrone, 
 T. Henderson, D. Ranasinghe, V. G. Zakrzewski, J. Gao, N. Rega, 
 G. Zheng, W. Liang, M. Hada, M. Ehara, K. Toyota, R. Fukuda, 
 J. Hasegawa, M. Ishida, T. Nakajima, Y. Honda, O. Kitao, H. Nakai, 
 T. Vreven, K. Throssell, J. A. Montgomery, Jr., J. E. Peralta, 
 F. Ogliaro, M. J. Bearpark, J. J. Heyd, E. N. Brothers, K. N. Kudin, 
 V. N. Staroverov, T. A. Keith, R. Kobayashi, J. Normand, 
 K. Raghavachari, A. P. Rendell, J. C. Burant, S. S. Iyengar, 
 J. Tomasi, M. Cossi, J. M. Millam, M. Klene, C. Adamo, R. Cammi, 
 J. W. Ochterski, R. L. Martin, K. Morokuma, O. Farkas, 
 J. B. Foresman, and D. J. Fox, Gaussian, Inc., Wallingford CT, 2019.
 
 ******************************************
 Gaussian 16:  ES64L-G16RevC.01  3-Jul-2019
                10-Jul-2025 
 ******************************************
 %chk=H3F1_oct_vaccum_M05-2x.chk
 %mem=20GB
 %nprocshared=20
 Will use up to   20 processors via shared memory.
 ---------------
 #P M052X/6-31G*
 ---------------
 1/38=1,172=1/1;
 2/12=2,17=6,18=5,40=1/2;
 3/5=1,6=6,7=1,11=2,25=1,30=1,74=-38/1,2,3;
 4//1;
 5/5=2,38=5/2;
 6/7=2,8=2,9=2,10=2,28=1/1;
 99/5=1,9=1/99;
 Leave Link    1 at Thu Jul 10 14:23:13 2025, MaxMem=  2684354560 cpu:               0.5 elap:               0.0
 (Enter /apps/gaussian/g16c01/g16/l101.exe)
 ----------------------
 H3F1_oct_vaccum_M05-2x
 ----------------------
 Symbolic Z-matrix:
 Charge =  0 Multiplicity = 1
 C                    -1.17939  -0.20059  0. 
 C                    -0.02537   0.43849   0. 
 H                    -2.10179   0.36754   0.00002 
 H                    -1.23301  -1.28398  -0.00002 
 F                     1.16018  -0.22481  0. 
 H                     0.12169   1.51225   0.00003 
 
 ITRead=  0  0  0  0  0  0
 MicOpt= -1 -1 -1 -1 -1 -1
 NAtoms=      6 NQM=        6 NQMF=       0 NMMI=      0 NMMIF=      0
                NMic=       0 NMicF=      0.
                    Isotopes and Nuclear Properties:
 (Nuclear quadrupole moments (NQMom) in fm**2, nuclear magnetic moments (NMagM)
  in nuclear magnetons)

  Atom         1           2           3           4           5           6
 IAtWgt=          12          12           1           1          19           1
 AtmWgt=  12.0000000  12.0000000   1.0078250   1.0078250  18.9984033   1.0078250
 NucSpn=           0           0           1           1           1           1
 AtZEff=  -0.0000000  -0.0000000  -0.0000000  -0.0000000  -0.0000000  -0.0000000
 NQMom=    0.0000000   0.0000000   0.0000000   0.0000000   0.0000000   0.0000000
 NMagM=    0.0000000   0.0000000   2.7928460   2.7928460   2.6288670   2.7928460
 AtZNuc=   6.0000000   6.0000000   1.0000000   1.0000000   9.0000000   1.0000000
 Leave Link  101 at Thu Jul 10 14:23:13 2025, MaxMem=  2684354560 cpu:               3.0 elap:               0.2
 (Enter /apps/gaussian/g16c01/g16/l202.exe)
                          Input orientation:                          
 ---------------------------------------------------------------------
 Center     Atomic      Atomic             Coordinates (Angstroms)
 Number     Number       Type             X           Y           Z
 ---------------------------------------------------------------------
      1          6           0       -1.179385   -0.200585   -0.000003
      2          6           0       -0.025369    0.438493    0.000000
      3          1           0       -2.101790    0.367539    0.000022
      4          1           0       -1.233011   -1.283978   -0.000020
      5          9           0        1.160182   -0.224806   -0.000001
      6          1           0        0.121687    1.512251    0.000029
 ---------------------------------------------------------------------
                    Distance matrix (angstroms):
                    1          2          3          4          5
     1  C    0.000000
     2  C    1.319156   0.000000
     3  H    1.083326   2.077633   0.000000
     4  H    1.084719   2.103641   1.866088   0.000000
     5  F    2.339692   1.358491   3.315318   2.617101   0.000000
     6  H    2.150952   1.083781   2.500843   3.107105   2.023818
                    6
     6  H    0.000000
 Stoichiometry    C2H3F
 Framework group  C1[X(C2H3F)]
 Deg. of freedom    12
 Full point group                 C1      NOp   1
 Largest Abelian subgroup         C1      NOp   1
 Largest concise Abelian subgroup C1      NOp   1
                         Standard orientation:                         
 ---------------------------------------------------------------------
 Center     Atomic      Atomic             Coordinates (Angstroms)
 Number     Number       Type             X           Y           Z
 ---------------------------------------------------------------------
      1          6           0       -1.179385   -0.200585   -0.000003
      2          6           0       -0.025369    0.438493   -0.000000
      3          1           0       -2.101790    0.367539    0.000022
      4          1           0       -1.233011   -1.283978   -0.000020
      5          9           0        1.160182   -0.224807   -0.000001
      6          1           0        0.121687    1.512251    0.000029
 ---------------------------------------------------------------------
 Rotational constants (GHZ):          64.7584924          10.5519578           9.0734935
 Leave Link  202 at Thu Jul 10 14:23:13 2025, MaxMem=  2684354560 cpu:               0.5 elap:               0.0
 (Enter /apps/gaussian/g16c01/g16/l301.exe)
 Standard basis: 6-31G(d) (6D, 7F)
 Ernie: Thresh=  0.10000D-02 Tol=  0.10000D-05 Strict=F.
 There are    51 symmetry adapted cartesian basis functions of A   symmetry.
 There are    51 symmetry adapted basis functions of A   symmetry.
    51 basis functions,    96 primitive gaussians,    51 cartesian basis functions
    12 alpha electrons       12 beta electrons
       nuclear repulsion energy        67.2658111688 Hartrees.
 IExCor= 3428 DFT=T Ex+Corr=M052X ExCW=0 ScaHFX=  0.560000
 ScaDFX=  0.440000  0.440000  1.000000  1.000000 ScalE2=  1.000000  1.000000
 IRadAn=      5 IRanWt=     -1 IRanGd=            0 ICorTp=0 IEmpDi=  4
 NAtoms=    6 NActive=    6 NUniq=    6 SFac= 1.00D+00 NAtFMM=   60 NAOKFM=F Big=F
 Integral buffers will be    131072 words long.
 Raffenetti 2 integral format.
 Two-electron integral symmetry is turned on.
 Leave Link  301 at Thu Jul 10 14:23:13 2025, MaxMem=  2684354560 cpu:               0.8 elap:               0.0
 (Enter /apps/gaussian/g16c01/g16/l302.exe)
 NPDir=0 NMtPBC=     1 NCelOv=     1 NCel=       1 NClECP=     1 NCelD=      1
         NCelK=      1 NCelE2=     1 NClLst=     1 CellRange=     0.0.
 One-electron integrals computed using PRISM.
 One-electron integral symmetry used in STVInt
 NBasis=    51 RedAO= T EigKep=  4.56D-03  NBF=    51
 NBsUse=    51 1.00D-06 EigRej= -1.00D+00 NBFU=    51
 Precomputing XC quadrature grid using
 IXCGrd= 4 IRadAn=           5 IRanWt=          -1 IRanGd=           0 AccXCQ= 0.00D+00.
 Generated NRdTot=       0 NPtTot=           0 NUsed=           0 NTot=          32
 NSgBfM=    51    51    51    51    51 MxSgAt=     6 MxSgA2=     6.
 Leave Link  302 at Thu Jul 10 14:23:14 2025, MaxMem=  2684354560 cpu:               2.5 elap:               0.1
 (Enter /apps/gaussian/g16c01/g16/l303.exe)
 DipDrv:  MaxL=1.
 Leave Link  303 at Thu Jul 10 14:23:14 2025, MaxMem=  2684354560 cpu:               1.0 elap:               0.1
 (Enter /apps/gaussian/g16c01/g16/l401.exe)
 ExpMin= 1.61D-01 ExpMax= 7.00D+03 ExpMxC= 1.05D+03 IAcc=3 IRadAn=         5 AccDes= 0.00D+00
 Harris functional with IExCor= 1009 and IRadAn=       5 diagonalized for initial guess.
 HarFok:  IExCor= 1009 AccDes= 0.00D+00 IRadAn=         5 IDoV= 1 UseB2=F ITyADJ=14
 ICtDFT=  3500011 ScaDFX=  1.000000  1.000000  1.000000  1.000000
 FoFCou: FMM=F IPFlag=           0 FMFlag=      100000 FMFlg1=           0
         NFxFlg=           0 DoJE=T BraDBF=F KetDBF=T FulRan=T
         wScrn=  0.000000 ICntrl=       500 IOpCl=  0 I1Cent=   200000004 NGrid=           0
         NMat0=    1 NMatS0=      1 NMatT0=    0 NMatD0=    1 NMtDS0=    0 NMtDT0=    0
 Petite list used in FoFCou.
 Harris En= -177.668659343327    
 JPrj=0 DoOrth=F DoCkMO=F.
 Leave Link  401 at Thu Jul 10 14:23:14 2025, MaxMem=  2684354560 cpu:               3.2 elap:               0.2
 (Enter /apps/gaussian/g16c01/g16/l502.exe)
 Keep R1 ints in memory in canonical form, NReq=18350672.
 FoFCou: FMM=F IPFlag=           0 FMFlag=           0 FMFlg1=           0
         NFxFlg=           0 DoJE=F BraDBF=F KetDBF=F FulRan=T
         wScrn=  0.000000 ICntrl=       600 IOpCl=  0 I1Cent=           0 NGrid=           0
         NMat0=    1 NMatS0=   1326 NMatT0=    0 NMatD0=    1 NMtDS0=    0 NMtDT0=    0
 Symmetry not used in FoFCou.
 Two-electron integral symmetry not used.
 Closed shell SCF:
 Using DIIS extrapolation, IDIIS=  1040.
 NGot=  2684354560 LenX=  2683467684 LenY=  2683464642
 Requested convergence on RMS density matrix=1.00D-08 within 128 cycles.
 Requested convergence on MAX density matrix=1.00D-06.
 Requested convergence on             energy=1.00D-06.
 No special actions if energy rises.
 Integral accuracy reduced to 1.0D-05 until final iterations.

 Cycle   1  Pass 0  IDiag  1:
 E= -177.714006987600    
 DIIS: error= 3.54D-02 at cycle   1 NSaved=   1.
 NSaved= 1 IEnMin= 1 EnMin= -177.714006987600     IErMin= 1 ErrMin= 3.54D-02
 ErrMax= 3.54D-02  0.00D+00 EMaxC= 1.00D-01 BMatC= 8.22D-02 BMatP= 8.22D-02
 IDIUse=3 WtCom= 6.46D-01 WtEn= 3.54D-01
 Coeff-Com:  0.100D+01
 Coeff-En:   0.100D+01
 Coeff:      0.100D+01
 Gap=     0.380 Goal=   None    Shift=    0.000
 GapD=    0.380 DampG=1.000 DampE=0.500 DampFc=0.5000 IDamp=-1.
 Damping current iteration by 5.00D-01
 RMSDP=8.11D-03 MaxDP=1.47D-01              OVMax= 1.96D-01

 Cycle   2  Pass 0  IDiag  1:
 E= -177.754769205006     Delta-E=       -0.040762217406 Rises=F Damp=T
 DIIS: error= 9.70D-03 at cycle   2 NSaved=   2.
 NSaved= 2 IEnMin= 2 EnMin= -177.754769205006     IErMin= 2 ErrMin= 9.70D-03
 ErrMax= 9.70D-03  0.00D+00 EMaxC= 1.00D-01 BMatC= 5.98D-03 BMatP= 8.22D-02
 IDIUse=3 WtCom= 9.03D-01 WtEn= 9.70D-02
 Coeff-Com: -0.984D-01 0.110D+01
 Coeff-En:   0.000D+00 0.100D+01
 Coeff:     -0.889D-01 0.109D+01
 Gap=     0.389 Goal=   None    Shift=    0.000
 RMSDP=1.73D-03 MaxDP=2.25D-02 DE=-4.08D-02 OVMax= 1.12D-01

 Cycle   3  Pass 0  IDiag  1:
 E= -177.791080244766     Delta-E=       -0.036311039759 Rises=F Damp=F
 DIIS: error= 5.01D-03 at cycle   3 NSaved=   3.
 NSaved= 3 IEnMin= 3 EnMin= -177.791080244766     IErMin= 3 ErrMin= 5.01D-03
 ErrMax= 5.01D-03  0.00D+00 EMaxC= 1.00D-01 BMatC= 1.78D-03 BMatP= 5.98D-03
 IDIUse=3 WtCom= 9.50D-01 WtEn= 5.01D-02
 Coeff-Com: -0.686D-01 0.384D+00 0.685D+00
 Coeff-En:   0.000D+00 0.000D+00 0.100D+01
 Coeff:     -0.652D-01 0.365D+00 0.700D+00
 Gap=     0.395 Goal=   None    Shift=    0.000
 RMSDP=9.08D-04 MaxDP=1.52D-02 DE=-3.63D-02 OVMax= 2.83D-02

 Cycle   4  Pass 0  IDiag  1:
 E= -177.792547148367     Delta-E=       -0.001466903601 Rises=F Damp=F
 DIIS: error= 1.82D-03 at cycle   4 NSaved=   4.
 NSaved= 4 IEnMin= 4 EnMin= -177.792547148367     IErMin= 4 ErrMin= 1.82D-03
 ErrMax= 1.82D-03  0.00D+00 EMaxC= 1.00D-01 BMatC= 2.62D-04 BMatP= 1.78D-03
 IDIUse=3 WtCom= 9.82D-01 WtEn= 1.82D-02
 Coeff-Com: -0.316D-02 0.308D-02 0.278D+00 0.722D+00
 Coeff-En:   0.000D+00 0.000D+00 0.459D-01 0.954D+00
 Coeff:     -0.311D-02 0.303D-02 0.274D+00 0.726D+00
 Gap=     0.396 Goal=   None    Shift=    0.000
 RMSDP=2.72D-04 MaxDP=3.66D-03 DE=-1.47D-03 OVMax= 5.69D-03

 Cycle   5  Pass 0  IDiag  1:
 E= -177.792776027582     Delta-E=       -0.000228879215 Rises=F Damp=F
 DIIS: error= 1.61D-04 at cycle   5 NSaved=   5.
 NSaved= 5 IEnMin= 5 EnMin= -177.792776027582     IErMin= 5 ErrMin= 1.61D-04
 ErrMax= 1.61D-04  0.00D+00 EMaxC= 1.00D-01 BMatC= 1.31D-06 BMatP= 2.62D-04
 IDIUse=3 WtCom= 9.98D-01 WtEn= 1.61D-03
 Coeff-Com:  0.225D-02-0.798D-02 0.279D-01 0.900D-01 0.888D+00
 Coeff-En:   0.000D+00 0.000D+00 0.000D+00 0.000D+00 0.100D+01
 Coeff:      0.225D-02-0.796D-02 0.279D-01 0.899D-01 0.888D+00
 Gap=     0.396 Goal=   None    Shift=    0.000
 RMSDP=2.68D-05 MaxDP=3.63D-04 DE=-2.29D-04 OVMax= 5.71D-04

 Cycle   6  Pass 0  IDiag  1:
 E= -177.792777348304     Delta-E=       -0.000001320721 Rises=F Damp=F
 DIIS: error= 7.43D-05 at cycle   6 NSaved=   6.
 NSaved= 6 IEnMin= 6 EnMin= -177.792777348304     IErMin= 6 ErrMin= 7.43D-05
 ErrMax= 7.43D-05  0.00D+00 EMaxC= 1.00D-01 BMatC= 4.82D-07 BMatP= 1.31D-06
 IDIUse=1 WtCom= 1.00D+00 WtEn= 0.00D+00
 Coeff-Com:  0.140D-02-0.441D-02-0.984D-02-0.252D-01 0.370D+00 0.669D+00
 Coeff:      0.140D-02-0.441D-02-0.984D-02-0.252D-01 0.370D+00 0.669D+00
 Gap=     0.396 Goal=   None    Shift=    0.000
 RMSDP=1.38D-05 MaxDP=1.63D-04 DE=-1.32D-06 OVMax= 1.83D-04

 Cycle   7  Pass 0  IDiag  1:
 E= -177.792777702290     Delta-E=       -0.000000353986 Rises=F Damp=F
 DIIS: error= 2.80D-05 at cycle   7 NSaved=   7.
 NSaved= 7 IEnMin= 7 EnMin= -177.792777702290     IErMin= 7 ErrMin= 2.80D-05
 ErrMax= 2.80D-05  0.00D+00 EMaxC= 1.00D-01 BMatC= 4.39D-08 BMatP= 4.82D-07
 IDIUse=1 WtCom= 1.00D+00 WtEn= 0.00D+00
 Coeff-Com:  0.185D-03-0.175D-03-0.611D-02-0.224D-01-0.315D-01 0.219D+00
 Coeff-Com:  0.841D+00
 Coeff:      0.185D-03-0.175D-03-0.611D-02-0.224D-01-0.315D-01 0.219D+00
 Coeff:      0.841D+00
 Gap=     0.396 Goal=   None    Shift=    0.000
 RMSDP=4.77D-06 MaxDP=4.90D-05 DE=-3.54D-07 OVMax= 8.53D-05

 Initial convergence to 1.0D-05 achieved.  Increase integral accuracy.
 Cycle   8  Pass 1  IDiag  1:
 E= -177.792791280931     Delta-E=       -0.000013578641 Rises=F Damp=F
 DIIS: error= 1.83D-05 at cycle   1 NSaved=   1.
 NSaved= 1 IEnMin= 1 EnMin= -177.792791280931     IErMin= 1 ErrMin= 1.83D-05
 ErrMax= 1.83D-05  0.00D+00 EMaxC= 1.00D-01 BMatC= 2.35D-08 BMatP= 2.35D-08
 IDIUse=1 WtCom= 1.00D+00 WtEn= 0.00D+00
 Coeff-Com:  0.100D+01
 Coeff:      0.100D+01
 Gap=     0.396 Goal=   None    Shift=    0.000
 RMSDP=4.77D-06 MaxDP=4.90D-05 DE=-1.36D-05 OVMax= 3.55D-05

 Cycle   9  Pass 1  IDiag  1:
 E= -177.792791300741     Delta-E=       -0.000000019811 Rises=F Damp=F
 DIIS: error= 3.39D-06 at cycle   2 NSaved=   2.
 NSaved= 2 IEnMin= 2 EnMin= -177.792791300741     IErMin= 2 ErrMin= 3.39D-06
 ErrMax= 3.39D-06  0.00D+00 EMaxC= 1.00D-01 BMatC= 7.81D-10 BMatP= 2.35D-08
 IDIUse=1 WtCom= 1.00D+00 WtEn= 0.00D+00
 Coeff-Com:  0.198D-01 0.980D+00
 Coeff:      0.198D-01 0.980D+00
 Gap=     0.396 Goal=   None    Shift=    0.000
 RMSDP=9.72D-07 MaxDP=1.91D-05 DE=-1.98D-08 OVMax= 3.02D-05

 Cycle  10  Pass 1  IDiag  1:
 E= -177.792791301094     Delta-E=       -0.000000000353 Rises=F Damp=F
 DIIS: error= 3.45D-06 at cycle   3 NSaved=   3.
 NSaved= 3 IEnMin= 3 EnMin= -177.792791301094     IErMin= 2 ErrMin= 3.39D-06
 ErrMax= 3.45D-06  0.00D+00 EMaxC= 1.00D-01 BMatC= 7.89D-10 BMatP= 7.81D-10
 IDIUse=1 WtCom= 1.00D+00 WtEn= 0.00D+00
 Coeff-Com: -0.327D-01 0.506D+00 0.527D+00
 Coeff:     -0.327D-01 0.506D+00 0.527D+00
 Gap=     0.396 Goal=   None    Shift=    0.000
 RMSDP=4.35D-07 MaxDP=6.13D-06 DE=-3.53D-10 OVMax= 1.13D-05

 Cycle  11  Pass 1  IDiag  1:
 E= -177.792791301800     Delta-E=       -0.000000000705 Rises=F Damp=F
 DIIS: error= 4.50D-07 at cycle   4 NSaved=   4.
 NSaved= 4 IEnMin= 4 EnMin= -177.792791301800     IErMin= 4 ErrMin= 4.50D-07
 ErrMax= 4.50D-07  0.00D+00 EMaxC= 1.00D-01 BMatC= 8.92D-12 BMatP= 7.81D-10
 IDIUse=1 WtCom= 1.00D+00 WtEn= 0.00D+00
 Coeff-Com: -0.606D-02 0.215D-01 0.676D-01 0.917D+00
 Coeff:     -0.606D-02 0.215D-01 0.676D-01 0.917D+00
 Gap=     0.396 Goal=   None    Shift=    0.000
 RMSDP=1.03D-07 MaxDP=1.62D-06 DE=-7.05D-10 OVMax= 3.36D-06

 Cycle  12  Pass 1  IDiag  1:
 E= -177.792791301814     Delta-E=       -0.000000000015 Rises=F Damp=F
 DIIS: error= 2.24D-07 at cycle   5 NSaved=   5.
 NSaved= 5 IEnMin= 5 EnMin= -177.792791301814     IErMin= 5 ErrMin= 2.24D-07
 ErrMax= 2.24D-07  0.00D+00 EMaxC= 1.00D-01 BMatC= 3.66D-12 BMatP= 8.92D-12
 IDIUse=1 WtCom= 1.00D+00 WtEn= 0.00D+00
 Coeff-Com:  0.873D-03-0.412D-01-0.428D-01 0.348D+00 0.735D+00
 Coeff:      0.873D-03-0.412D-01-0.428D-01 0.348D+00 0.735D+00
 Gap=     0.396 Goal=   None    Shift=    0.000
 RMSDP=4.54D-08 MaxDP=4.22D-07 DE=-1.47D-11 OVMax= 5.89D-07

 Cycle  13  Pass 1  IDiag  1:
 E= -177.792791301818     Delta-E=       -0.000000000003 Rises=F Damp=F
 DIIS: error= 4.61D-08 at cycle   6 NSaved=   6.
 NSaved= 6 IEnMin= 6 EnMin= -177.792791301818     IErMin= 6 ErrMin= 4.61D-08
 ErrMax= 4.61D-08  0.00D+00 EMaxC= 1.00D-01 BMatC= 1.75D-13 BMatP= 3.66D-12
 IDIUse=1 WtCom= 1.00D+00 WtEn= 0.00D+00
 Coeff-Com:  0.989D-03-0.143D-01-0.241D-01 0.329D-01 0.171D+00 0.833D+00
 Coeff:      0.989D-03-0.143D-01-0.241D-01 0.329D-01 0.171D+00 0.833D+00
 Gap=     0.396 Goal=   None    Shift=    0.000
 RMSDP=1.03D-08 MaxDP=1.17D-07 DE=-3.50D-12 OVMax= 1.75D-07

 Cycle  14  Pass 1  IDiag  1:
 E= -177.792791301819     Delta-E=       -0.000000000001 Rises=F Damp=F
 DIIS: error= 2.01D-08 at cycle   7 NSaved=   7.
 NSaved= 7 IEnMin= 7 EnMin= -177.792791301819     IErMin= 7 ErrMin= 2.01D-08
 ErrMax= 2.01D-08  0.00D+00 EMaxC= 1.00D-01 BMatC= 3.88D-14 BMatP= 1.75D-13
 IDIUse=1 WtCom= 1.00D+00 WtEn= 0.00D+00
 Coeff-Com:  0.348D-03-0.256D-02-0.754D-02-0.157D-01-0.326D-02 0.390D+00
 Coeff-Com:  0.638D+00
 Coeff:      0.348D-03-0.256D-02-0.754D-02-0.157D-01-0.326D-02 0.390D+00
 Coeff:      0.638D+00
 Gap=     0.396 Goal=   None    Shift=    0.000
 RMSDP=3.81D-09 MaxDP=4.64D-08 DE=-5.12D-13 OVMax= 4.75D-08

 SCF Done:  E(RM052X) =  -177.792791302     A.U. after   14 cycles
            NFock= 14  Conv=0.38D-08     -V/T= 2.0081
 KE= 1.763693763115D+02 PE=-5.530215397345D+02 EE= 1.315935609524D+02
 Leave Link  502 at Thu Jul 10 14:23:15 2025, MaxMem=  2684354560 cpu:              13.0 elap:               0.7
 (Enter /apps/gaussian/g16c01/g16/l601.exe)
 Copying SCF densities to generalized density rwf, IOpCl= 0 IROHF=0.

 **********************************************************************

            Population analysis using the SCF Density.

 **********************************************************************

 Orbital symmetries:
       Occupied  (A) (A) (A) (A) (A) (A) (A) (A) (A) (A) (A) (A)
       Virtual   (A) (A) (A) (A) (A) (A) (A) (A) (A) (A) (A) (A)
                 (A) (A) (A) (A) (A) (A) (A) (A) (A) (A) (A) (A)
                 (A) (A) (A) (A) (A) (A) (A) (A) (A) (A) (A) (A)
                 (A) (A) (A)
 The electronic state is 1-A.
 Alpha  occ. eigenvalues --  -25.30154 -10.66263 -10.57480  -1.34096  -0.87775
 Alpha  occ. eigenvalues --   -0.69762  -0.60924  -0.56073  -0.54388  -0.48028
 Alpha  occ. eigenvalues --   -0.45072  -0.32565
 Alpha virt. eigenvalues --    0.07047   0.17035   0.18863   0.20847   0.29651
 Alpha virt. eigenvalues --    0.39154   0.55325   0.59322   0.63852   0.67594
 Alpha virt. eigenvalues --    0.69254   0.73754   0.93875   0.94340   1.02139
 Alpha virt. eigenvalues --    1.10725   1.14105   1.30789   1.31485   1.47796
 Alpha virt. eigenvalues --    1.48322   1.55396   1.75581   1.79165   1.90761
 Alpha virt. eigenvalues --    1.92803   1.97390   2.02157   2.10385   2.29974
 Alpha virt. eigenvalues --    2.35660   2.38585   2.59408   2.77531   2.91920
 Alpha virt. eigenvalues --    3.13144   4.14277   4.26722   4.41764
          Condensed to atoms (all electrons):
               1          2          3          4          5          6
     1  C    5.212025   0.618492   0.360469   0.370025  -0.047557  -0.072883
     2  C    0.618492   4.574479  -0.017238  -0.024881   0.289105   0.381842
     3  H    0.360469  -0.017238   0.496094  -0.025723   0.001777  -0.000613
     4  H    0.370025  -0.024881  -0.025723   0.483193  -0.001628   0.003889
     5  F   -0.047557   0.289105   0.001777  -0.001628   9.089828  -0.037350
     6  H   -0.072883   0.381842  -0.000613   0.003889  -0.037350   0.548931
 Mulliken charges:
               1
     1  C   -0.440570
     2  C    0.178201
     3  H    0.185234
     4  H    0.195125
     5  F   -0.294175
     6  H    0.176185
 Sum of Mulliken charges =  -0.00000
 Mulliken charges with hydrogens summed into heavy atoms:
               1
     1  C   -0.060211
     2  C    0.354386
     5  F   -0.294175
 Electronic spatial extent (au):  <R**2>=            153.1678
 Charge=             -0.0000 electrons
 Dipole moment (field-independent basis, Debye):
    X=             -1.1991    Y=              0.8135    Z=              0.0000  Tot=              1.4490
 Quadrupole moment (field-independent basis, Debye-Ang):
   XX=            -17.1414   YY=            -14.9515   ZZ=            -18.6024
   XY=              0.6482   XZ=             -0.0000   YZ=              0.0001
 Traceless Quadrupole moment (field-independent basis, Debye-Ang):
   XX=             -0.2430   YY=              1.9470   ZZ=             -1.7039
   XY=              0.6482   XZ=             -0.0000   YZ=              0.0001
 Octapole moment (field-independent basis, Debye-Ang**2):
  XXX=              4.7254  YYY=             -0.8400  ZZZ=              0.0000  XYY=              2.2920
  XXY=              0.0990  XXZ=              0.0001  XZZ=              4.6738  YZZ=             -0.5856
  YYZ=              0.0000  XYZ=             -0.0001
 Hexadecapole moment (field-independent basis, Debye-Ang**3):
 XXXX=           -114.4256 YYYY=            -33.9372 ZZZZ=            -16.9707 XXXY=             -4.3849
 XXXZ=             -0.0002 YYYX=              0.0486 YYYZ=             -0.0000 ZZZX=             -0.0000
 ZZZY=             -0.0002 XXYY=            -25.2160 XXZZ=            -24.6252 YYZZ=             -9.8263
 XXYZ=              0.0000 YYXZ=              0.0000 ZZXY=             -0.7570
 N-N= 6.726581116883D+01 E-N=-5.530215396354D+02  KE= 1.763693763115D+02
 No NMR shielding tensors so no spin-rotation constants.
 Leave Link  601 at Thu Jul 10 14:23:15 2025, MaxMem=  2684354560 cpu:               1.3 elap:               0.1
 (Enter /apps/gaussian/g16c01/g16/l9999.exe)
 Unable to Open any file for archive entry.
 1\1\GINC-GADI-CPU-CLX-0504\SP\RM052X\6-31G(d)\C2H3F1\YR9300\10-Jul-202
 5\0\\#P M052X/6-31G*\\H3F1_oct_vaccum_M05-2x\\0,1\C,0,-1.179385,-0.200
 585,-0.000003\C,0,-0.025369,0.438493,0.\H,0,-2.10179,0.367539,0.000022
 \H,0,-1.233011,-1.283978,-0.00002\F,0,1.160182,-0.224806,-0.000001\H,0
 ,0.121687,1.512251,0.000029\\Version=ES64L-G16RevC.01\State=1-A\HF=-17
 7.7927913\RMSD=3.810e-09\Dipole=-0.4717737,0.3200535,0.0000096\Quadrup
 ole=-0.1806768,1.4475105,-1.2668337,0.4819096,-0.0000236,0.0000551\PG=
 C01 [X(C2H3F1)]\\@
 The archive entry for this job was punched.


 There was a great rattling of the words for the fewness of ideas.
                   -- Charles Baxter in Gryphon
 Job cpu time:       0 days  0 hours  0 minutes 26.8 seconds.
 Elapsed time:       0 days  0 hours  0 minutes  1.4 seconds.
 File lengths (MBytes):  RWF=      6 Int=      0 D2E=      0 Chk=      1 Scr=      1
 Normal termination of Gaussian 16 at Thu Jul 10 14:23:15 2025.
