 Entering Gaussian System, Link 0=g16
 Initial command:
 /apps/gaussian/g16c01/g16/l1.exe "/jobfs/145007928.gadi-pbs/Gau-2942017.inp" -scrdir="/jobfs/145007928.gadi-pbs/"
 Entering Link 1 = /apps/gaussian/g16c01/g16/l1.exe PID=   2942018.
  
 Copyright (c) 1988-2019, Gaussian, Inc.  All Rights Reserved.
  
 This is part of the Gaussian(R) 16 program.  It is based on
 the Gaussian(R) 09 system (copyright 2009, Gaussian, Inc.),
 the Gaussian(R) 03 system (copyright 2003, Gaussian, Inc.),
 the Gaussian(R) 98 system (copyright 1998, Gaussian, Inc.),
 the Gaussian(R) 94 system (copyright 1995, Gaussian, Inc.),
 the Gaussian 92(TM) system (copyright 1992, Gaussian, Inc.),
 the Gaussian 90(TM) system (copyright 1990, Gaussian, Inc.),
 the Gaussian 88(TM) system (copyright 1988, Gaussian, Inc.),
 the Gaussian 86(TM) system (copyright 1986, Carnegie Mellon
 University), and the Gaussian 82(TM) system (copyright 1983,
 Carnegie Mellon University). Gaussian is a federally registered
 trademark of Gaussian, Inc.
  
 This software contains proprietary and confidential information,
 including trade secrets, belonging to Gaussian, Inc.
  
 This software is provided under written license and may be
 used, copied, transmitted, or stored only in accord with that
 written license.
  
 The following legend is applicable only to US Government
 contracts under FAR:
  
                    RESTRICTED RIGHTS LEGEND
  
 Use, reproduction and disclosure by the US Government is
 subject to restrictions as set forth in subparagraphs (a)
 and (c) of the Commercial Computer Software - Restricted
 Rights clause in FAR 52.227-19.
  
 Gaussian, Inc.
 340 Quinnipiac St., Bldg. 40, Wallingford CT 06492
  
  
 ---------------------------------------------------------------
 Warning -- This program may not be used in any manner that
 competes with the business of Gaussian, Inc. or will provide
 assistance to any competitor of Gaussian, Inc.  The licensee
 of this program is prohibited from giving any competitor of
 Gaussian, Inc. access to this program.  By using this program,
 the user acknowledges that Gaussian, Inc. is engaged in the
 business of creating and licensing software in the field of
 computational chemistry and represents and warrants to the
 licensee that it is not a competitor of Gaussian, Inc. and that
 it will not use this program in any manner prohibited above.
 ---------------------------------------------------------------
  

 Cite this work as:
 Gaussian 16, Revision C.01,
 M. J. Frisch, G. W. Trucks, H. B. Schlegel, G. E. Scuseria, 
 M. A. Robb, J. R. Cheeseman, G. Scalmani, V. Barone, 
 G. A. Petersson, H. Nakatsuji, X. Li, M. Caricato, A. V. Marenich, 
 J. Bloino, B. G. Janesko, R. Gomperts, B. Mennucci, H. P. Hratchian, 
 J. V. Ortiz, A. F. Izmaylov, J. L. Sonnenberg, D. Williams-Young, 
 F. Ding, F. Lipparini, F. Egidi, J. Goings, B. Peng, A. Petrone, 
 T. Henderson, D. Ranasinghe, V. G. Zakrzewski, J. Gao, N. Rega, 
 G. Zheng, W. Liang, M. Hada, M. Ehara, K. Toyota, R. Fukuda, 
 J. Hasegawa, M. Ishida, T. Nakajima, Y. Honda, O. Kitao, H. Nakai, 
 T. Vreven, K. Throssell, J. A. Montgomery, Jr., J. E. Peralta, 
 F. Ogliaro, M. J. Bearpark, J. J. Heyd, E. N. Brothers, K. N. Kudin, 
 V. N. Staroverov, T. A. Keith, R. Kobayashi, J. Normand, 
 K. Raghavachari, A. P. Rendell, J. C. Burant, S. S. Iyengar, 
 J. Tomasi, M. Cossi, J. M. Millam, M. Klene, C. Adamo, R. Cammi, 
 J. W. Ochterski, R. L. Martin, K. Morokuma, O. Farkas, 
 J. B. Foresman, and D. J. Fox, Gaussian, Inc., Wallingford CT, 2019.
 
 ******************************************
 Gaussian 16:  ES64L-G16RevC.01  3-Jul-2019
                10-Jul-2025 
 ******************************************
 %chk=H3F1_wat_M05-2x.chk
 %mem=20GB
 %nprocshared=20
 Will use up to   20 processors via shared memory.
 ---------------------------------------
 #P M052X/6-31G* scrf(SMD,solvent=water)
 ---------------------------------------
 1/38=1,172=1/1;
 2/12=2,17=6,18=5,40=1/2;
 3/5=1,6=6,7=1,11=2,25=1,30=1,70=32201,72=1,74=-38/1,2,3;
 4//1;
 5/5=2,38=5,53=1/2;
 6/7=2,8=2,9=2,10=2,28=1/1;
 99/5=1,9=1/99;
 Leave Link    1 at Thu Jul 10 14:46:22 2025, MaxMem=  2684354560 cpu:               1.2 elap:               0.1
 (Enter /apps/gaussian/g16c01/g16/l101.exe)
 ---------------
 H3F1_wat_M05-2x
 ---------------
 Symbolic Z-matrix:
 Charge =  0 Multiplicity = 1
 C                    -1.17911  -0.20134  0. 
 C                    -0.02615   0.43992   0.00001 
 H                    -2.10112   0.36673   0.00002 
 H                    -1.2317   -1.28455  -0.00002 
 F                     1.16028  -0.22517  -0.00001 
 H                     0.12188   1.51287   0.00003 
 
 ITRead=  0  0  0  0  0  0
 MicOpt= -1 -1 -1 -1 -1 -1
 NAtoms=      6 NQM=        6 NQMF=       0 NMMI=      0 NMMIF=      0
                NMic=       0 NMicF=      0.
                    Isotopes and Nuclear Properties:
 (Nuclear quadrupole moments (NQMom) in fm**2, nuclear magnetic moments (NMagM)
  in nuclear magnetons)

  Atom         1           2           3           4           5           6
 IAtWgt=          12          12           1           1          19           1
 AtmWgt=  12.0000000  12.0000000   1.0078250   1.0078250  18.9984033   1.0078250
 NucSpn=           0           0           1           1           1           1
 AtZEff=  -0.0000000  -0.0000000  -0.0000000  -0.0000000  -0.0000000  -0.0000000
 NQMom=    0.0000000   0.0000000   0.0000000   0.0000000   0.0000000   0.0000000
 NMagM=    0.0000000   0.0000000   2.7928460   2.7928460   2.6288670   2.7928460
 AtZNuc=   6.0000000   6.0000000   1.0000000   1.0000000   9.0000000   1.0000000
 Leave Link  101 at Thu Jul 10 14:46:23 2025, MaxMem=  2684354560 cpu:               3.1 elap:               0.2
 (Enter /apps/gaussian/g16c01/g16/l202.exe)
                          Input orientation:                          
 ---------------------------------------------------------------------
 Center     Atomic      Atomic             Coordinates (Angstroms)
 Number     Number       Type             X           Y           Z
 ---------------------------------------------------------------------
      1          6           0       -1.179114   -0.201336   -0.000001
      2          6           0       -0.026153    0.439922    0.000006
      3          1           0       -2.101121    0.366733    0.000017
      4          1           0       -1.231704   -1.284549   -0.000020
      5          9           0        1.160282   -0.225174   -0.000006
      6          1           0        0.121883    1.512867    0.000029
 ---------------------------------------------------------------------
                    Distance matrix (angstroms):
                    1          2          3          4          5
     1  C    0.000000
     2  C    1.319292   0.000000
     3  H    1.082959   2.076258   0.000000
     4  H    1.084489   2.104080   1.866177   0.000000
     5  F    2.339517   1.360140   3.314680   2.616080   0.000000
     6  H    2.151996   1.083109   2.501074   3.107690   2.024613
                    6
     6  H    0.000000
 Stoichiometry    C2H3F
 Framework group  C1[X(C2H3F)]
 Deg. of freedom    12
 Full point group                 C1      NOp   1
 Largest Abelian subgroup         C1      NOp   1
 Largest concise Abelian subgroup C1      NOp   1
                         Standard orientation:                         
 ---------------------------------------------------------------------
 Center     Atomic      Atomic             Coordinates (Angstroms)
 Number     Number       Type             X           Y           Z
 ---------------------------------------------------------------------
      1          6           0       -1.179114   -0.201336   -0.000001
      2          6           0       -0.026153    0.439922    0.000006
      3          1           0       -2.101121    0.366732    0.000017
      4          1           0       -1.231703   -1.284549   -0.000020
      5          9           0        1.160282   -0.225174   -0.000006
      6          1           0        0.121883    1.512867    0.000029
 ---------------------------------------------------------------------
 Rotational constants (GHZ):          64.5560983          10.5537826           9.0708575
 Leave Link  202 at Thu Jul 10 14:46:23 2025, MaxMem=  2684354560 cpu:               0.9 elap:               0.1
 (Enter /apps/gaussian/g16c01/g16/l301.exe)
 Standard basis: 6-31G(d) (6D, 7F)
 Ernie: Thresh=  0.10000D-02 Tol=  0.10000D-05 Strict=F.
 There are    51 symmetry adapted cartesian basis functions of A   symmetry.
 There are    51 symmetry adapted basis functions of A   symmetry.
    51 basis functions,    96 primitive gaussians,    51 cartesian basis functions
    12 alpha electrons       12 beta electrons
       nuclear repulsion energy        67.2431481024 Hartrees.
 IExCor= 3428 DFT=T Ex+Corr=M052X ExCW=0 ScaHFX=  0.560000
 ScaDFX=  0.440000  0.440000  1.000000  1.000000 ScalE2=  1.000000  1.000000
 IRadAn=      5 IRanWt=     -1 IRanGd=            0 ICorTp=0 IEmpDi=  4
 NAtoms=    6 NActive=    6 NUniq=    6 SFac= 1.00D+00 NAtFMM=   60 NAOKFM=F Big=F
 Integral buffers will be    131072 words long.
 Raffenetti 2 integral format.
 Two-electron integral symmetry is turned on.
 ------------------------------------------------------------------------------
 Polarizable Continuum Model (PCM)
 =================================
 Model                : PCM.
 Atomic radii         : SMD-Coulomb.
 Polarization charges : Total charges.
 Charge compensation  : None.
 Solution method      : On-the-fly selection.
 Cavity type          : VdW (van der Waals Surface) (Alpha=1.000).
 Cavity algorithm     : GePol (No added spheres)
                        Default sphere list used, NSphG=    6.
                        Lebedev-Laikov grids with approx.  5.0 points / Ang**2.
                        Smoothing algorithm: York/Karplus (Gamma=1.0000).
                        Polarization charges: spherical gaussians, with
                                              point-specific exponents (IZeta= 3).
                        Self-potential: point-specific (ISelfS= 7).
                        Self-field    : sphere-specific E.n sum rule (ISelfD= 2).
 Solvent              : Water, Eps=  78.355300 Eps(inf)=   1.777849
 ------------------------------------------------------------------------------
 Spheres list:
 ISph  on   Nord     Re0    Alpha      Xe            Ye            Ze
    1   C      1    1.8500  1.000     -1.179114     -0.201336     -0.000001
    2   C      2    1.8500  1.000     -0.026153      0.439922      0.000006
    3   H      3    1.2000  1.000     -2.101121      0.366732      0.000017
    4   H      4    1.2000  1.000     -1.231703     -1.284549     -0.000020
    5   F      5    1.7300  1.000      1.160282     -0.225174     -0.000006
    6   H      6    1.2000  1.000      0.121883      1.512867      0.000029
 ------------------------------------------------------------------------------
 GePol: Number of generator spheres                  =       6
 GePol: Total number of spheres                      =       6
 GePol: Number of exposed spheres                    =       6 (100.00%)
 GePol: Number of points                             =     578
 GePol: Average weight of points                     =       0.13
 GePol: Minimum weight of points                     =   0.96D-11
 GePol: Maximum weight of points                     =    0.21501
 GePol: Number of points with low weight             =      19
 GePol: Fraction of low-weight points (<1% of avg)   =       3.29%
 GePol: Cavity surface area                          =     75.513 Ang**2
 GePol: Cavity volume                                =     54.047 Ang**3
 ------------------------------------------------------------------------------
 Atomic radii for non-electrostatic terms: SMD-CDS.
 ------------------------------------------------------------------------------
 PCM non-electrostatic energy =         0.0059883855 Hartrees.
 Nuclear repulsion after PCM non-electrostatic terms =       67.2491364878 Hartrees.
 Leave Link  301 at Thu Jul 10 14:46:23 2025, MaxMem=  2684354560 cpu:               1.9 elap:               0.1
 (Enter /apps/gaussian/g16c01/g16/l302.exe)
 NPDir=0 NMtPBC=     1 NCelOv=     1 NCel=       1 NClECP=     1 NCelD=      1
         NCelK=      1 NCelE2=     1 NClLst=     1 CellRange=     0.0.
 One-electron integrals computed using PRISM.
 One-electron integral symmetry used in STVInt
 NBasis=    51 RedAO= T EigKep=  4.57D-03  NBF=    51
 NBsUse=    51 1.00D-06 EigRej= -1.00D+00 NBFU=    51
 Precomputing XC quadrature grid using
 IXCGrd= 4 IRadAn=           5 IRanWt=          -1 IRanGd=           0 AccXCQ= 0.00D+00.
 Generated NRdTot=       0 NPtTot=           0 NUsed=           0 NTot=          32
 NSgBfM=    51    51    51    51    51 MxSgAt=     6 MxSgA2=     6.
 Leave Link  302 at Thu Jul 10 14:46:23 2025, MaxMem=  2684354560 cpu:               3.0 elap:               0.2
 (Enter /apps/gaussian/g16c01/g16/l303.exe)
 DipDrv:  MaxL=1.
 Leave Link  303 at Thu Jul 10 14:46:23 2025, MaxMem=  2684354560 cpu:               4.4 elap:               0.3
 (Enter /apps/gaussian/g16c01/g16/l401.exe)
 ExpMin= 1.61D-01 ExpMax= 7.00D+03 ExpMxC= 1.05D+03 IAcc=3 IRadAn=         5 AccDes= 0.00D+00
 Harris functional with IExCor= 1009 and IRadAn=       5 diagonalized for initial guess.
 HarFok:  IExCor= 1009 AccDes= 0.00D+00 IRadAn=         5 IDoV= 1 UseB2=F ITyADJ=14
 ICtDFT=  3500011 ScaDFX=  1.000000  1.000000  1.000000  1.000000
 FoFCou: FMM=F IPFlag=           0 FMFlag=      100000 FMFlg1=           0
         NFxFlg=           0 DoJE=T BraDBF=F KetDBF=T FulRan=T
         wScrn=  0.000000 ICntrl=       500 IOpCl=  0 I1Cent=   200000004 NGrid=           0
         NMat0=    1 NMatS0=      1 NMatT0=    0 NMatD0=    1 NMtDS0=    0 NMtDT0=    0
 Petite list used in FoFCou.
 Harris En= -177.662626243658    
 JPrj=0 DoOrth=F DoCkMO=F.
 Leave Link  401 at Thu Jul 10 14:46:24 2025, MaxMem=  2684354560 cpu:               4.2 elap:               0.3
 (Enter /apps/gaussian/g16c01/g16/l502.exe)
 Keep R1 ints in memory in canonical form, NReq=18350672.
 FoFCou: FMM=F IPFlag=           0 FMFlag=           0 FMFlg1=           0
         NFxFlg=           0 DoJE=F BraDBF=F KetDBF=F FulRan=T
         wScrn=  0.000000 ICntrl=       600 IOpCl=  0 I1Cent=           0 NGrid=           0
         NMat0=    1 NMatS0=   1326 NMatT0=    0 NMatD0=    1 NMtDS0=    0 NMtDT0=    0
 Symmetry not used in FoFCou.
 Two-electron integral symmetry not used.
 Closed shell SCF:
 Using DIIS extrapolation, IDIIS=  1040.
 NGot=  2684354560 LenX=  2683467684 LenY=  2683464642
 Requested convergence on RMS density matrix=1.00D-08 within 128 cycles.
 Requested convergence on MAX density matrix=1.00D-06.
 Requested convergence on             energy=1.00D-06.
 No special actions if energy rises.

 Cycle   1  Pass 1  IDiag  1:
 Inv3:  Mode=1 IEnd=     1002252.
 Iteration    1 A*A^-1 deviation from unit magnitude is 2.22D-15 for    578.
 Iteration    1 A*A^-1 deviation from orthogonality  is 1.17D-15 for    369     29.
 Iteration    1 A^-1*A deviation from unit magnitude is 2.11D-15 for    578.
 Iteration    1 A^-1*A deviation from orthogonality  is 2.17D-14 for    460    411.
 E= -177.715699679844    
 DIIS: error= 3.65D-02 at cycle   1 NSaved=   1.
 NSaved= 1 IEnMin= 1 EnMin= -177.715699679844     IErMin= 1 ErrMin= 3.65D-02
 ErrMax= 3.65D-02  0.00D+00 EMaxC= 1.00D-01 BMatC= 7.95D-02 BMatP= 7.95D-02
 IDIUse=3 WtCom= 6.35D-01 WtEn= 3.65D-01
 Coeff-Com:  0.100D+01
 Coeff-En:   0.100D+01
 Coeff:      0.100D+01
 Gap=     0.385 Goal=   None    Shift=    0.000
 GapD=    0.385 DampG=1.000 DampE=0.500 DampFc=0.5000 IDamp=-1.
 Damping current iteration by 5.00D-01
 RMSDP=7.63D-03 MaxDP=1.45D-01              OVMax= 1.86D-01

 Cycle   2  Pass 1  IDiag  1:
 E= -177.756026058826     Delta-E=       -0.040326378982 Rises=F Damp=T
 DIIS: error= 9.59D-03 at cycle   2 NSaved=   2.
 NSaved= 2 IEnMin= 2 EnMin= -177.756026058826     IErMin= 2 ErrMin= 9.59D-03
 ErrMax= 9.59D-03  0.00D+00 EMaxC= 1.00D-01 BMatC= 5.95D-03 BMatP= 7.95D-02
 IDIUse=3 WtCom= 9.04D-01 WtEn= 9.59D-02
 Coeff-Com: -0.133D+00 0.113D+01
 Coeff-En:   0.000D+00 0.100D+01
 Coeff:     -0.121D+00 0.112D+01
 Gap=     0.394 Goal=   None    Shift=    0.000
 RMSDP=1.51D-03 MaxDP=1.93D-02 DE=-4.03D-02 OVMax= 9.15D-02

 Cycle   3  Pass 1  IDiag  1:
 E= -177.791027816904     Delta-E=       -0.035001758078 Rises=F Damp=F
 DIIS: error= 3.45D-03 at cycle   3 NSaved=   3.
 NSaved= 3 IEnMin= 3 EnMin= -177.791027816904     IErMin= 3 ErrMin= 3.45D-03
 ErrMax= 3.45D-03  0.00D+00 EMaxC= 1.00D-01 BMatC= 1.02D-03 BMatP= 5.95D-03
 IDIUse=3 WtCom= 9.66D-01 WtEn= 3.45D-02
 Coeff-Com: -0.640D-01 0.316D+00 0.748D+00
 Coeff-En:   0.000D+00 0.000D+00 0.100D+01
 Coeff:     -0.618D-01 0.305D+00 0.756D+00
 Gap=     0.397 Goal=   None    Shift=    0.000
 RMSDP=6.76D-04 MaxDP=1.20D-02 DE=-3.50D-02 OVMax= 2.15D-02

 Cycle   4  Pass 1  IDiag  1:
 E= -177.791842501254     Delta-E=       -0.000814684351 Rises=F Damp=F
 DIIS: error= 1.46D-03 at cycle   4 NSaved=   4.
 NSaved= 4 IEnMin= 4 EnMin= -177.791842501254     IErMin= 4 ErrMin= 1.46D-03
 ErrMax= 1.46D-03  0.00D+00 EMaxC= 1.00D-01 BMatC= 1.94D-04 BMatP= 1.02D-03
 IDIUse=3 WtCom= 9.85D-01 WtEn= 1.46D-02
 Coeff-Com: -0.284D-02-0.959D-03 0.302D+00 0.701D+00
 Coeff-En:   0.000D+00 0.000D+00 0.441D-01 0.956D+00
 Coeff:     -0.280D-02-0.945D-03 0.299D+00 0.705D+00
 Gap=     0.398 Goal=   None    Shift=    0.000
 RMSDP=2.03D-04 MaxDP=3.03D-03 DE=-8.15D-04 OVMax= 3.85D-03

 Cycle   5  Pass 1  IDiag  1:
 E= -177.792001885105     Delta-E=       -0.000159383850 Rises=F Damp=F
 DIIS: error= 1.35D-04 at cycle   5 NSaved=   5.
 NSaved= 5 IEnMin= 5 EnMin= -177.792001885105     IErMin= 5 ErrMin= 1.35D-04
 ErrMax= 1.35D-04  0.00D+00 EMaxC= 1.00D-01 BMatC= 1.24D-06 BMatP= 1.94D-04
 IDIUse=3 WtCom= 9.99D-01 WtEn= 1.35D-03
 Coeff-Com:  0.240D-02-0.816D-02 0.163D-01 0.363D-01 0.953D+00
 Coeff-En:   0.000D+00 0.000D+00 0.000D+00 0.000D+00 0.100D+01
 Coeff:      0.240D-02-0.815D-02 0.162D-01 0.362D-01 0.953D+00
 Gap=     0.398 Goal=   None    Shift=    0.000
 RMSDP=3.19D-05 MaxDP=3.23D-04 DE=-1.59D-04 OVMax= 5.72D-04

 Cycle   6  Pass 1  IDiag  1:
 E= -177.792003576696     Delta-E=       -0.000001691591 Rises=F Damp=F
 DIIS: error= 7.63D-05 at cycle   6 NSaved=   6.
 NSaved= 6 IEnMin= 6 EnMin= -177.792003576696     IErMin= 6 ErrMin= 7.63D-05
 ErrMax= 7.63D-05  0.00D+00 EMaxC= 1.00D-01 BMatC= 5.25D-07 BMatP= 1.24D-06
 IDIUse=1 WtCom= 1.00D+00 WtEn= 0.00D+00
 Coeff-Com:  0.140D-02-0.410D-02-0.197D-01-0.582D-01 0.394D+00 0.687D+00
 Coeff:      0.140D-02-0.410D-02-0.197D-01-0.582D-01 0.394D+00 0.687D+00
 Gap=     0.398 Goal=   None    Shift=    0.000
 RMSDP=1.54D-05 MaxDP=1.74D-04 DE=-1.69D-06 OVMax= 2.64D-04

 Cycle   7  Pass 1  IDiag  1:
 E= -177.792003986294     Delta-E=       -0.000000409598 Rises=F Damp=F
 DIIS: error= 2.76D-05 at cycle   7 NSaved=   7.
 NSaved= 7 IEnMin= 7 EnMin= -177.792003986294     IErMin= 7 ErrMin= 2.76D-05
 ErrMax= 2.76D-05  0.00D+00 EMaxC= 1.00D-01 BMatC= 4.46D-08 BMatP= 5.25D-07
 IDIUse=1 WtCom= 1.00D+00 WtEn= 0.00D+00
 Coeff-Com:  0.122D-03 0.540D-04-0.619D-02-0.234D-01-0.334D-01 0.218D+00
 Coeff-Com:  0.845D+00
 Coeff:      0.122D-03 0.540D-04-0.619D-02-0.234D-01-0.334D-01 0.218D+00
 Coeff:      0.845D+00
 Gap=     0.398 Goal=   None    Shift=    0.000
 RMSDP=5.16D-06 MaxDP=5.99D-05 DE=-4.10D-07 OVMax= 9.53D-05

 Cycle   8  Pass 1  IDiag  1:
 E= -177.792004036090     Delta-E=       -0.000000049796 Rises=F Damp=F
 DIIS: error= 4.09D-06 at cycle   8 NSaved=   8.
 NSaved= 8 IEnMin= 8 EnMin= -177.792004036090     IErMin= 8 ErrMin= 4.09D-06
 ErrMax= 4.09D-06  0.00D+00 EMaxC= 1.00D-01 BMatC= 1.02D-09 BMatP= 4.46D-08
 IDIUse=1 WtCom= 1.00D+00 WtEn= 0.00D+00
 Coeff-Com: -0.197D-04 0.544D-04 0.172D-02 0.382D-02-0.157D-01-0.336D-01
 Coeff-Com: -0.106D+00 0.115D+01
 Coeff:     -0.197D-04 0.544D-04 0.172D-02 0.382D-02-0.157D-01-0.336D-01
 Coeff:     -0.106D+00 0.115D+01
 Gap=     0.398 Goal=   None    Shift=    0.000
 RMSDP=1.36D-06 MaxDP=1.42D-05 DE=-4.98D-08 OVMax= 2.58D-05

 Cycle   9  Pass 1  IDiag  1:
 E= -177.792004037876     Delta-E=       -0.000000001787 Rises=F Damp=F
 DIIS: error= 5.80D-07 at cycle   9 NSaved=   9.
 NSaved= 9 IEnMin= 9 EnMin= -177.792004037876     IErMin= 9 ErrMin= 5.80D-07
 ErrMax= 5.80D-07  0.00D+00 EMaxC= 1.00D-01 BMatC= 2.67D-11 BMatP= 1.02D-09
 IDIUse=1 WtCom= 1.00D+00 WtEn= 0.00D+00
 Coeff-Com:  0.703D-05-0.190D-04 0.162D-03 0.514D-03 0.101D-02-0.341D-02
 Coeff-Com: -0.274D-01-0.332D-01 0.106D+01
 Coeff:      0.703D-05-0.190D-04 0.162D-03 0.514D-03 0.101D-02-0.341D-02
 Coeff:     -0.274D-01-0.332D-01 0.106D+01
 Gap=     0.398 Goal=   None    Shift=    0.000
 RMSDP=2.07D-07 MaxDP=2.61D-06 DE=-1.79D-09 OVMax= 3.21D-06

 Cycle  10  Pass 1  IDiag  1:
 E= -177.792004037917     Delta-E=       -0.000000000041 Rises=F Damp=F
 DIIS: error= 8.29D-08 at cycle  10 NSaved=  10.
 NSaved=10 IEnMin=10 EnMin= -177.792004037917     IErMin=10 ErrMin= 8.29D-08
 ErrMax= 8.29D-08  0.00D+00 EMaxC= 1.00D-01 BMatC= 2.43D-13 BMatP= 2.67D-11
 IDIUse=1 WtCom= 1.00D+00 WtEn= 0.00D+00
 Coeff-Com:  0.119D-05-0.271D-05-0.400D-04-0.934D-04 0.321D-03 0.930D-03
 Coeff-Com:  0.322D-02-0.263D-01-0.355D-01 0.106D+01
 Coeff:      0.119D-05-0.271D-05-0.400D-04-0.934D-04 0.321D-03 0.930D-03
 Coeff:      0.322D-02-0.263D-01-0.355D-01 0.106D+01
 Gap=     0.398 Goal=   None    Shift=    0.000
 RMSDP=3.08D-08 MaxDP=3.91D-07 DE=-4.07D-11 OVMax= 3.02D-07

 Cycle  11  Pass 1  IDiag  1:
 E= -177.792004037917     Delta-E=       -0.000000000000 Rises=F Damp=F
 DIIS: error= 8.19D-09 at cycle  11 NSaved=  11.
 NSaved=11 IEnMin=11 EnMin= -177.792004037917     IErMin=11 ErrMin= 8.19D-09
 ErrMax= 8.19D-09  0.00D+00 EMaxC= 1.00D-01 BMatC= 4.02D-15 BMatP= 2.43D-13
 IDIUse=1 WtCom= 1.00D+00 WtEn= 0.00D+00
 Coeff-Com: -0.309D-06 0.745D-06 0.168D-05 0.207D-05-0.549D-04-0.665D-04
 Coeff-Com:  0.228D-03 0.388D-02-0.175D-01-0.101D+00 0.111D+01
 Coeff:     -0.309D-06 0.745D-06 0.168D-05 0.207D-05-0.549D-04-0.665D-04
 Coeff:      0.228D-03 0.388D-02-0.175D-01-0.101D+00 0.111D+01
 Gap=     0.398 Goal=   None    Shift=    0.000
 RMSDP=3.95D-09 MaxDP=4.75D-08 DE=-3.98D-13 OVMax= 3.96D-08

 Error on total polarization charges =  0.01615
 SCF Done:  E(RM052X) =  -177.792004038     A.U. after   11 cycles
            NFock= 11  Conv=0.39D-08     -V/T= 2.0080
 KE= 1.763869635919D+02 PE=-5.531129649531D+02 EE= 1.316848608354D+02
 SMD-CDS (non-electrostatic) energy       (kcal/mol) =       3.76
 (included in total energy above)
 Leave Link  502 at Thu Jul 10 14:46:25 2025, MaxMem=  2684354560 cpu:              29.7 elap:               1.6
 (Enter /apps/gaussian/g16c01/g16/l601.exe)
 Copying SCF densities to generalized density rwf, IOpCl= 0 IROHF=0.

 **********************************************************************

            Population analysis using the SCF Density.

 **********************************************************************

 Orbital symmetries:
       Occupied  (A) (A) (A) (A) (A) (A) (A) (A) (A) (A) (A) (A)
       Virtual   (A) (A) (A) (A) (A) (A) (A) (A) (A) (A) (A) (A)
                 (A) (A) (A) (A) (A) (A) (A) (A) (A) (A) (A) (A)
                 (A) (A) (A) (A) (A) (A) (A) (A) (A) (A) (A) (A)
                 (A) (A) (A)
 The electronic state is 1-A.
 Alpha  occ. eigenvalues --  -25.30326 -10.65497 -10.56568  -1.34289  -0.87124
 Alpha  occ. eigenvalues --   -0.69232  -0.60502  -0.55570  -0.54691  -0.47210
 Alpha  occ. eigenvalues --   -0.44541  -0.32234
 Alpha virt. eigenvalues --    0.07546   0.18349   0.20513   0.22621   0.30888
 Alpha virt. eigenvalues --    0.40246   0.56153   0.59551   0.63971   0.68283
 Alpha virt. eigenvalues --    0.69775   0.74454   0.95287   0.95460   1.03365
 Alpha virt. eigenvalues --    1.10891   1.14623   1.30364   1.31306   1.47132
 Alpha virt. eigenvalues --    1.48654   1.55565   1.75598   1.79688   1.91017
 Alpha virt. eigenvalues --    1.92351   1.97067   2.02391   2.10944   2.30630
 Alpha virt. eigenvalues --    2.36004   2.38869   2.59411   2.78241   2.92153
 Alpha virt. eigenvalues --    3.13085   4.14751   4.26397   4.41976
          Condensed to atoms (all electrons):
               1          2          3          4          5          6
     1  C    5.251076   0.616619   0.362187   0.369992  -0.048476  -0.064730
     2  C    0.616619   4.619446  -0.017444  -0.027475   0.277523   0.382531
     3  H    0.362187  -0.017444   0.458413  -0.022532   0.001689  -0.000475
     4  H    0.369992  -0.027475  -0.022532   0.462711  -0.001468   0.003476
     5  F   -0.048476   0.277523   0.001689  -0.001468   9.120321  -0.035044
     6  H   -0.064730   0.382531  -0.000475   0.003476  -0.035044   0.495289
 Mulliken charges:
               1
     1  C   -0.486668
     2  C    0.148800
     3  H    0.218162
     4  H    0.215296
     5  F   -0.314544
     6  H    0.218954
 Sum of Mulliken charges =  -0.00000
 Mulliken charges with hydrogens summed into heavy atoms:
               1
     1  C   -0.053210
     2  C    0.367754
     5  F   -0.314544
 Electronic spatial extent (au):  <R**2>=            152.7686
 Charge=             -0.0000 electrons
 Dipole moment (field-independent basis, Debye):
    X=             -1.4676    Y=              1.0147    Z=              0.0000  Tot=              1.7842
 Quadrupole moment (field-independent basis, Debye-Ang):
   XX=            -16.9214   YY=            -14.5643   ZZ=            -18.6435
   XY=              0.6905   XZ=             -0.0000   YZ=              0.0001
 Traceless Quadrupole moment (field-independent basis, Debye-Ang):
   XX=             -0.2117   YY=              2.1454   ZZ=             -1.9338
   XY=              0.6905   XZ=             -0.0000   YZ=              0.0001
 Octapole moment (field-independent basis, Debye-Ang**2):
  XXX=              3.3315  YYY=             -0.2200  ZZZ=             -0.0000  XYY=              2.0713
  XXY=              0.3376  XXZ=              0.0001  XZZ=              4.6214  YZZ=             -0.5311
  YYZ=              0.0000  XYZ=             -0.0001
 Hexadecapole moment (field-independent basis, Debye-Ang**3):
 XXXX=           -112.0814 YYYY=            -32.0838 ZZZZ=            -17.0654 XXXY=             -4.5710
 XXXZ=             -0.0001 YYYX=              0.2870 YYYZ=             -0.0000 ZZZX=              0.0001
 ZZZY=             -0.0002 XXYY=            -24.7782 XXZZ=            -24.5692 YYZZ=             -9.7324
 XXYZ=              0.0000 YYXZ=              0.0001 ZZXY=             -0.7527
 N-N= 6.724913648784D+01 E-N=-5.531129648146D+02  KE= 1.763869635919D+02
 No NMR shielding tensors so no spin-rotation constants.
 Leave Link  601 at Thu Jul 10 14:46:27 2025, MaxMem=  2684354560 cpu:              14.9 elap:               1.2
 (Enter /apps/gaussian/g16c01/g16/l9999.exe)
 Unable to Open any file for archive entry.
 1\1\GINC-GADI-CPU-CLX-0216\SP\RM052X\6-31G(d)\C2H3F1\YR9300\10-Jul-202
 5\0\\#P M052X/6-31G* scrf(SMD,solvent=water)\\H3F1_wat_M05-2x\\0,1\C,0
 ,-1.179114,-0.201336,-0.000001\C,0,-0.026153,0.439922,0.000006\H,0,-2.
 101121,0.366733,0.000017\H,0,-1.231704,-1.284549,-0.00002\F,0,1.160282
 ,-0.225174,-0.000006\H,0,0.121883,1.512867,0.000029\\Version=ES64L-G16
 RevC.01\State=1-A\HF=-177.792004\RMSD=3.947e-09\Dipole=-0.5774121,0.39
 91957,0.0000109\Quadrupole=-0.1573593,1.5950566,-1.4376973,0.5133493,-
 0.0000059,0.0000581\PG=C01 [X(C2H3F1)]\\@
 The archive entry for this job was punched.


 THEORY:  SUPPOSITION WHICH HAS SCIENTIFIC BASIS,
          BUT NOT EXPERIMENTALLY PROVEN.
 FACT:    A THEORY WHICH HAS BEEN PROVEN BY ENOUGH 
          MONEY TO PAY FOR THE EXPERIMENTS.

                          --  THE WIZARD OF ID
 Job cpu time:       0 days  0 hours  1 minutes  4.8 seconds.
 Elapsed time:       0 days  0 hours  0 minutes  4.2 seconds.
 File lengths (MBytes):  RWF=     12 Int=      0 D2E=      0 Chk=      1 Scr=      1
 Normal termination of Gaussian 16 at Thu Jul 10 14:46:27 2025.
