 Entering Gaussian System, Link 0=g16
 Initial command:
 /apps/gaussian/g16c01/g16/l1.exe "/jobfs/145007492.gadi-pbs/Gau-2503036.inp" -scrdir="/jobfs/145007492.gadi-pbs/"
 Entering Link 1 = /apps/gaussian/g16c01/g16/l1.exe PID=   2503037.
  
 Copyright (c) 1988-2019, Gaussian, Inc.  All Rights Reserved.
  
 This is part of the Gaussian(R) 16 program.  It is based on
 the Gaussian(R) 09 system (copyright 2009, Gaussian, Inc.),
 the Gaussian(R) 03 system (copyright 2003, Gaussian, Inc.),
 the Gaussian(R) 98 system (copyright 1998, Gaussian, Inc.),
 the Gaussian(R) 94 system (copyright 1995, Gaussian, Inc.),
 the Gaussian 92(TM) system (copyright 1992, Gaussian, Inc.),
 the Gaussian 90(TM) system (copyright 1990, Gaussian, Inc.),
 the Gaussian 88(TM) system (copyright 1988, Gaussian, Inc.),
 the Gaussian 86(TM) system (copyright 1986, Carnegie Mellon
 University), and the Gaussian 82(TM) system (copyright 1983,
 Carnegie Mellon University). Gaussian is a federally registered
 trademark of Gaussian, Inc.
  
 This software contains proprietary and confidential information,
 including trade secrets, belonging to Gaussian, Inc.
  
 This software is provided under written license and may be
 used, copied, transmitted, or stored only in accord with that
 written license.
  
 The following legend is applicable only to US Government
 contracts under FAR:
  
                    RESTRICTED RIGHTS LEGEND
  
 Use, reproduction and disclosure by the US Government is
 subject to restrictions as set forth in subparagraphs (a)
 and (c) of the Commercial Computer Software - Restricted
 Rights clause in FAR 52.227-19.
  
 Gaussian, Inc.
 340 Quinnipiac St., Bldg. 40, Wallingford CT 06492
  
  
 ---------------------------------------------------------------
 Warning -- This program may not be used in any manner that
 competes with the business of Gaussian, Inc. or will provide
 assistance to any competitor of Gaussian, Inc.  The licensee
 of this program is prohibited from giving any competitor of
 Gaussian, Inc. access to this program.  By using this program,
 the user acknowledges that Gaussian, Inc. is engaged in the
 business of creating and licensing software in the field of
 computational chemistry and represents and warrants to the
 licensee that it is not a competitor of Gaussian, Inc. and that
 it will not use this program in any manner prohibited above.
 ---------------------------------------------------------------
  

 Cite this work as:
 Gaussian 16, Revision C.01,
 M. J. Frisch, G. W. Trucks, H. B. Schlegel, G. E. Scuseria, 
 M. A. Robb, J. R. Cheeseman, G. Scalmani, V. Barone, 
 G. A. Petersson, H. Nakatsuji, X. Li, M. Caricato, A. V. Marenich, 
 J. Bloino, B. G. Janesko, R. Gomperts, B. Mennucci, H. P. Hratchian, 
 J. V. Ortiz, A. F. Izmaylov, J. L. Sonnenberg, D. Williams-Young, 
 F. Ding, F. Lipparini, F. Egidi, J. Goings, B. Peng, A. Petrone, 
 T. Henderson, D. Ranasinghe, V. G. Zakrzewski, J. Gao, N. Rega, 
 G. Zheng, W. Liang, M. Hada, M. Ehara, K. Toyota, R. Fukuda, 
 J. Hasegawa, M. Ishida, T. Nakajima, Y. Honda, O. Kitao, H. Nakai, 
 T. Vreven, K. Throssell, J. A. Montgomery, Jr., J. E. Peralta, 
 F. Ogliaro, M. J. Bearpark, J. J. Heyd, E. N. Brothers, K. N. Kudin, 
 V. N. Staroverov, T. A. Keith, R. Kobayashi, J. Normand, 
 K. Raghavachari, A. P. Rendell, J. C. Burant, S. S. Iyengar, 
 J. Tomasi, M. Cossi, J. M. Millam, M. Klene, C. Adamo, R. Cammi, 
 J. W. Ochterski, R. L. Martin, K. Morokuma, O. Farkas, 
 J. B. Foresman, and D. J. Fox, Gaussian, Inc., Wallingford CT, 2019.
 
 ******************************************
 Gaussian 16:  ES64L-G16RevC.01  3-Jul-2019
                10-Jul-2025 
 ******************************************
 %chk=H3F1_oct_M05-2x.chk
 %mem=20GB
 %nprocshared=20
 Will use up to   20 processors via shared memory.
 -------------------------------------------
 #P M052X/6-31G* scrf(SMD,solvent=n-octanol)
 -------------------------------------------
 1/38=1,172=1/1;
 2/12=2,17=6,18=5,40=1/2;
 3/5=1,6=6,7=1,11=2,25=1,30=1,70=32201,72=25,74=-38/1,2,3;
 4//1;
 5/5=2,38=5,53=25/2;
 6/7=2,8=2,9=2,10=2,28=1/1;
 99/5=1,9=1/99;
 Leave Link    1 at Thu Jul 10 14:23:13 2025, MaxMem=  2684354560 cpu:               1.4 elap:               0.1
 (Enter /apps/gaussian/g16c01/g16/l101.exe)
 ---------------
 H3F1_oct_M05-2x
 ---------------
 Symbolic Z-matrix:
 Charge =  0 Multiplicity = 1
 C                    -1.17939  -0.20059  0. 
 C                    -0.02537   0.43849   0. 
 H                    -2.10179   0.36754   0.00002 
 H                    -1.23301  -1.28398  -0.00002 
 F                     1.16018  -0.22481  0. 
 H                     0.12169   1.51225   0.00003 
 
 ITRead=  0  0  0  0  0  0
 MicOpt= -1 -1 -1 -1 -1 -1
 NAtoms=      6 NQM=        6 NQMF=       0 NMMI=      0 NMMIF=      0
                NMic=       0 NMicF=      0.
                    Isotopes and Nuclear Properties:
 (Nuclear quadrupole moments (NQMom) in fm**2, nuclear magnetic moments (NMagM)
  in nuclear magnetons)

  Atom         1           2           3           4           5           6
 IAtWgt=          12          12           1           1          19           1
 AtmWgt=  12.0000000  12.0000000   1.0078250   1.0078250  18.9984033   1.0078250
 NucSpn=           0           0           1           1           1           1
 AtZEff=  -0.0000000  -0.0000000  -0.0000000  -0.0000000  -0.0000000  -0.0000000
 NQMom=    0.0000000   0.0000000   0.0000000   0.0000000   0.0000000   0.0000000
 NMagM=    0.0000000   0.0000000   2.7928460   2.7928460   2.6288670   2.7928460
 AtZNuc=   6.0000000   6.0000000   1.0000000   1.0000000   9.0000000   1.0000000
 Leave Link  101 at Thu Jul 10 14:23:13 2025, MaxMem=  2684354560 cpu:               2.5 elap:               0.2
 (Enter /apps/gaussian/g16c01/g16/l202.exe)
                          Input orientation:                          
 ---------------------------------------------------------------------
 Center     Atomic      Atomic             Coordinates (Angstroms)
 Number     Number       Type             X           Y           Z
 ---------------------------------------------------------------------
      1          6           0       -1.179385   -0.200585   -0.000003
      2          6           0       -0.025369    0.438493    0.000000
      3          1           0       -2.101790    0.367539    0.000022
      4          1           0       -1.233011   -1.283978   -0.000020
      5          9           0        1.160182   -0.224806   -0.000001
      6          1           0        0.121687    1.512251    0.000029
 ---------------------------------------------------------------------
                    Distance matrix (angstroms):
                    1          2          3          4          5
     1  C    0.000000
     2  C    1.319156   0.000000
     3  H    1.083326   2.077633   0.000000
     4  H    1.084719   2.103641   1.866088   0.000000
     5  F    2.339692   1.358491   3.315318   2.617101   0.000000
     6  H    2.150952   1.083781   2.500843   3.107105   2.023818
                    6
     6  H    0.000000
 Stoichiometry    C2H3F
 Framework group  C1[X(C2H3F)]
 Deg. of freedom    12
 Full point group                 C1      NOp   1
 Largest Abelian subgroup         C1      NOp   1
 Largest concise Abelian subgroup C1      NOp   1
                         Standard orientation:                         
 ---------------------------------------------------------------------
 Center     Atomic      Atomic             Coordinates (Angstroms)
 Number     Number       Type             X           Y           Z
 ---------------------------------------------------------------------
      1          6           0       -1.179385   -0.200585   -0.000003
      2          6           0       -0.025369    0.438493   -0.000000
      3          1           0       -2.101790    0.367539    0.000022
      4          1           0       -1.233011   -1.283978   -0.000020
      5          9           0        1.160182   -0.224807   -0.000001
      6          1           0        0.121687    1.512251    0.000029
 ---------------------------------------------------------------------
 Rotational constants (GHZ):          64.7584924          10.5519578           9.0734935
 Leave Link  202 at Thu Jul 10 14:23:13 2025, MaxMem=  2684354560 cpu:               0.9 elap:               0.1
 (Enter /apps/gaussian/g16c01/g16/l301.exe)
 Standard basis: 6-31G(d) (6D, 7F)
 Ernie: Thresh=  0.10000D-02 Tol=  0.10000D-05 Strict=F.
 There are    51 symmetry adapted cartesian basis functions of A   symmetry.
 There are    51 symmetry adapted basis functions of A   symmetry.
    51 basis functions,    96 primitive gaussians,    51 cartesian basis functions
    12 alpha electrons       12 beta electrons
       nuclear repulsion energy        67.2658111688 Hartrees.
 IExCor= 3428 DFT=T Ex+Corr=M052X ExCW=0 ScaHFX=  0.560000
 ScaDFX=  0.440000  0.440000  1.000000  1.000000 ScalE2=  1.000000  1.000000
 IRadAn=      5 IRanWt=     -1 IRanGd=            0 ICorTp=0 IEmpDi=  4
 NAtoms=    6 NActive=    6 NUniq=    6 SFac= 1.00D+00 NAtFMM=   60 NAOKFM=F Big=F
 Integral buffers will be    131072 words long.
 Raffenetti 2 integral format.
 Two-electron integral symmetry is turned on.
 ------------------------------------------------------------------------------
 Polarizable Continuum Model (PCM)
 =================================
 Model                : PCM.
 Atomic radii         : SMD-Coulomb.
 Polarization charges : Total charges.
 Charge compensation  : None.
 Solution method      : On-the-fly selection.
 Cavity type          : VdW (van der Waals Surface) (Alpha=1.000).
 Cavity algorithm     : GePol (No added spheres)
                        Default sphere list used, NSphG=    6.
                        Lebedev-Laikov grids with approx.  5.0 points / Ang**2.
                        Smoothing algorithm: York/Karplus (Gamma=1.0000).
                        Polarization charges: spherical gaussians, with
                                              point-specific exponents (IZeta= 3).
                        Self-potential: point-specific (ISelfS= 7).
                        Self-field    : sphere-specific E.n sum rule (ISelfD= 2).
 Solvent              : n-Octanol, Eps=   9.862900 Eps(inf)=   2.043470
 ------------------------------------------------------------------------------
 Spheres list:
 ISph  on   Nord     Re0    Alpha      Xe            Ye            Ze
    1   C      1    1.8500  1.000     -1.179385     -0.200585     -0.000003
    2   C      2    1.8500  1.000     -0.025369      0.438493     -0.000000
    3   H      3    1.2000  1.000     -2.101790      0.367539      0.000022
    4   H      4    1.2000  1.000     -1.233011     -1.283978     -0.000020
    5   F      5    1.7300  1.000      1.160182     -0.224807     -0.000001
    6   H      6    1.2000  1.000      0.121687      1.512251      0.000029
 ------------------------------------------------------------------------------
 GePol: Number of generator spheres                  =       6
 GePol: Total number of spheres                      =       6
 GePol: Number of exposed spheres                    =       6 (100.00%)
 GePol: Number of points                             =     578
 GePol: Average weight of points                     =       0.13
 GePol: Minimum weight of points                     =   0.11D-07
 GePol: Maximum weight of points                     =    0.21501
 GePol: Number of points with low weight             =      19
 GePol: Fraction of low-weight points (<1% of avg)   =       3.29%
 GePol: Cavity surface area                          =     75.506 Ang**2
 GePol: Cavity volume                                =     54.038 Ang**3
 ------------------------------------------------------------------------------
 Atomic radii for non-electrostatic terms: SMD-CDS.
 ------------------------------------------------------------------------------
 PCM non-electrostatic energy =         0.0027151896 Hartrees.
 Nuclear repulsion after PCM non-electrostatic terms =       67.2685263585 Hartrees.
 Leave Link  301 at Thu Jul 10 14:23:14 2025, MaxMem=  2684354560 cpu:               1.1 elap:               0.1
 (Enter /apps/gaussian/g16c01/g16/l302.exe)
 NPDir=0 NMtPBC=     1 NCelOv=     1 NCel=       1 NClECP=     1 NCelD=      1
         NCelK=      1 NCelE2=     1 NClLst=     1 CellRange=     0.0.
 One-electron integrals computed using PRISM.
 One-electron integral symmetry used in STVInt
 NBasis=    51 RedAO= T EigKep=  4.56D-03  NBF=    51
 NBsUse=    51 1.00D-06 EigRej= -1.00D+00 NBFU=    51
 Precomputing XC quadrature grid using
 IXCGrd= 4 IRadAn=           5 IRanWt=          -1 IRanGd=           0 AccXCQ= 0.00D+00.
 Generated NRdTot=       0 NPtTot=           0 NUsed=           0 NTot=          32
 NSgBfM=    51    51    51    51    51 MxSgAt=     6 MxSgA2=     6.
 Leave Link  302 at Thu Jul 10 14:23:14 2025, MaxMem=  2684354560 cpu:               7.1 elap:               0.4
 (Enter /apps/gaussian/g16c01/g16/l303.exe)
 DipDrv:  MaxL=1.
 Leave Link  303 at Thu Jul 10 14:23:14 2025, MaxMem=  2684354560 cpu:               1.1 elap:               0.1
 (Enter /apps/gaussian/g16c01/g16/l401.exe)
 ExpMin= 1.61D-01 ExpMax= 7.00D+03 ExpMxC= 1.05D+03 IAcc=3 IRadAn=         5 AccDes= 0.00D+00
 Harris functional with IExCor= 1009 and IRadAn=       5 diagonalized for initial guess.
 HarFok:  IExCor= 1009 AccDes= 0.00D+00 IRadAn=         5 IDoV= 1 UseB2=F ITyADJ=14
 ICtDFT=  3500011 ScaDFX=  1.000000  1.000000  1.000000  1.000000
 FoFCou: FMM=F IPFlag=           0 FMFlag=      100000 FMFlg1=           0
         NFxFlg=           0 DoJE=T BraDBF=F KetDBF=T FulRan=T
         wScrn=  0.000000 ICntrl=       500 IOpCl=  0 I1Cent=   200000004 NGrid=           0
         NMat0=    1 NMatS0=      1 NMatT0=    0 NMatD0=    1 NMtDS0=    0 NMtDT0=    0
 Petite list used in FoFCou.
 Harris En= -177.665944153679    
 JPrj=0 DoOrth=F DoCkMO=F.
 Leave Link  401 at Thu Jul 10 14:23:14 2025, MaxMem=  2684354560 cpu:               2.8 elap:               0.1
 (Enter /apps/gaussian/g16c01/g16/l502.exe)
 Keep R1 ints in memory in canonical form, NReq=18350672.
 FoFCou: FMM=F IPFlag=           0 FMFlag=           0 FMFlg1=           0
         NFxFlg=           0 DoJE=F BraDBF=F KetDBF=F FulRan=T
         wScrn=  0.000000 ICntrl=       600 IOpCl=  0 I1Cent=           0 NGrid=           0
         NMat0=    1 NMatS0=   1326 NMatT0=    0 NMatD0=    1 NMtDS0=    0 NMtDT0=    0
 Symmetry not used in FoFCou.
 Two-electron integral symmetry not used.
 Closed shell SCF:
 Using DIIS extrapolation, IDIIS=  1040.
 NGot=  2684354560 LenX=  2683467684 LenY=  2683464642
 Requested convergence on RMS density matrix=1.00D-08 within 128 cycles.
 Requested convergence on MAX density matrix=1.00D-06.
 Requested convergence on             energy=1.00D-06.
 No special actions if energy rises.

 Cycle   1  Pass 1  IDiag  1:
 Inv3:  Mode=1 IEnd=     1002252.
 Iteration    1 A*A^-1 deviation from unit magnitude is 2.33D-15 for     95.
 Iteration    1 A*A^-1 deviation from orthogonality  is 1.34D-15 for    411     92.
 Iteration    1 A^-1*A deviation from unit magnitude is 2.33D-15 for     95.
 Iteration    1 A^-1*A deviation from orthogonality  is 1.92D-14 for    554    411.
 E= -177.717902025946    
 DIIS: error= 3.63D-02 at cycle   1 NSaved=   1.
 NSaved= 1 IEnMin= 1 EnMin= -177.717902025946     IErMin= 1 ErrMin= 3.63D-02
 ErrMax= 3.63D-02  0.00D+00 EMaxC= 1.00D-01 BMatC= 7.99D-02 BMatP= 7.99D-02
 IDIUse=3 WtCom= 6.37D-01 WtEn= 3.63D-01
 Coeff-Com:  0.100D+01
 Coeff-En:   0.100D+01
 Coeff:      0.100D+01
 Gap=     0.385 Goal=   None    Shift=    0.000
 GapD=    0.385 DampG=1.000 DampE=0.500 DampFc=0.5000 IDamp=-1.
 Damping current iteration by 5.00D-01
 RMSDP=7.69D-03 MaxDP=1.45D-01              OVMax= 1.87D-01

 Cycle   2  Pass 1  IDiag  1:
 E= -177.758344893076     Delta-E=       -0.040442867130 Rises=F Damp=T
 DIIS: error= 9.63D-03 at cycle   2 NSaved=   2.
 NSaved= 2 IEnMin= 2 EnMin= -177.758344893076     IErMin= 2 ErrMin= 9.63D-03
 ErrMax= 9.63D-03  0.00D+00 EMaxC= 1.00D-01 BMatC= 5.95D-03 BMatP= 7.99D-02
 IDIUse=3 WtCom= 9.04D-01 WtEn= 9.63D-02
 Coeff-Com: -0.129D+00 0.113D+01
 Coeff-En:   0.000D+00 0.100D+01
 Coeff:     -0.117D+00 0.112D+01
 Gap=     0.394 Goal=   None    Shift=    0.000
 RMSDP=1.51D-03 MaxDP=1.91D-02 DE=-4.04D-02 OVMax= 9.38D-02

 Cycle   3  Pass 1  IDiag  1:
 E= -177.793538335998     Delta-E=       -0.035193442922 Rises=F Damp=F
 DIIS: error= 3.58D-03 at cycle   3 NSaved=   3.
 NSaved= 3 IEnMin= 3 EnMin= -177.793538335998     IErMin= 3 ErrMin= 3.58D-03
 ErrMax= 3.58D-03  0.00D+00 EMaxC= 1.00D-01 BMatC= 1.09D-03 BMatP= 5.95D-03
 IDIUse=3 WtCom= 9.64D-01 WtEn= 3.58D-02
 Coeff-Com: -0.644D-01 0.324D+00 0.740D+00
 Coeff-En:   0.000D+00 0.000D+00 0.100D+01
 Coeff:     -0.621D-01 0.313D+00 0.749D+00
 Gap=     0.397 Goal=   None    Shift=    0.000
 RMSDP=6.95D-04 MaxDP=1.23D-02 DE=-3.52D-02 OVMax= 2.21D-02

 Cycle   4  Pass 1  IDiag  1:
 E= -177.794406742179     Delta-E=       -0.000868406181 Rises=F Damp=F
 DIIS: error= 1.49D-03 at cycle   4 NSaved=   4.
 NSaved= 4 IEnMin= 4 EnMin= -177.794406742179     IErMin= 4 ErrMin= 1.49D-03
 ErrMax= 1.49D-03  0.00D+00 EMaxC= 1.00D-01 BMatC= 1.99D-04 BMatP= 1.09D-03
 IDIUse=3 WtCom= 9.85D-01 WtEn= 1.49D-02
 Coeff-Com: -0.285D-02-0.360D-03 0.299D+00 0.704D+00
 Coeff-En:   0.000D+00 0.000D+00 0.448D-01 0.955D+00
 Coeff:     -0.281D-02-0.354D-03 0.295D+00 0.708D+00
 Gap=     0.398 Goal=   None    Shift=    0.000
 RMSDP=2.10D-04 MaxDP=3.09D-03 DE=-8.68D-04 OVMax= 4.04D-03

 Cycle   5  Pass 1  IDiag  1:
 E= -177.794571739977     Delta-E=       -0.000164997798 Rises=F Damp=F
 DIIS: error= 1.31D-04 at cycle   5 NSaved=   5.
 NSaved= 5 IEnMin= 5 EnMin= -177.794571739977     IErMin= 5 ErrMin= 1.31D-04
 ErrMax= 1.31D-04  0.00D+00 EMaxC= 1.00D-01 BMatC= 1.21D-06 BMatP= 1.99D-04
 IDIUse=3 WtCom= 9.99D-01 WtEn= 1.31D-03
 Coeff-Com:  0.236D-02-0.805D-02 0.184D-01 0.454D-01 0.942D+00
 Coeff-En:   0.000D+00 0.000D+00 0.000D+00 0.000D+00 0.100D+01
 Coeff:      0.236D-02-0.804D-02 0.184D-01 0.454D-01 0.942D+00
 Gap=     0.398 Goal=   None    Shift=    0.000
 RMSDP=3.03D-05 MaxDP=3.28D-04 DE=-1.65D-04 OVMax= 5.33D-04

 Cycle   6  Pass 1  IDiag  1:
 E= -177.794573309905     Delta-E=       -0.000001569927 Rises=F Damp=F
 DIIS: error= 7.49D-05 at cycle   6 NSaved=   6.
 NSaved= 6 IEnMin= 6 EnMin= -177.794573309905     IErMin= 6 ErrMin= 7.49D-05
 ErrMax= 7.49D-05  0.00D+00 EMaxC= 1.00D-01 BMatC= 5.04D-07 BMatP= 1.21D-06
 IDIUse=1 WtCom= 1.00D+00 WtEn= 0.00D+00
 Coeff-Com:  0.139D-02-0.411D-02-0.181D-01-0.528D-01 0.389D+00 0.685D+00
 Coeff:      0.139D-02-0.411D-02-0.181D-01-0.528D-01 0.389D+00 0.685D+00
 Gap=     0.398 Goal=   None    Shift=    0.000
 RMSDP=1.50D-05 MaxDP=1.67D-04 DE=-1.57D-06 OVMax= 2.48D-04

 Cycle   7  Pass 1  IDiag  1:
 E= -177.794573697904     Delta-E=       -0.000000387999 Rises=F Damp=F
 DIIS: error= 2.74D-05 at cycle   7 NSaved=   7.
 NSaved= 7 IEnMin= 7 EnMin= -177.794573697904     IErMin= 7 ErrMin= 2.74D-05
 ErrMax= 2.74D-05  0.00D+00 EMaxC= 1.00D-01 BMatC= 4.30D-08 BMatP= 5.04D-07
 IDIUse=1 WtCom= 1.00D+00 WtEn= 0.00D+00
 Coeff-Com:  0.130D-03 0.164D-04-0.621D-02-0.231D-01-0.327D-01 0.218D+00
 Coeff-Com:  0.844D+00
 Coeff:      0.130D-03 0.164D-04-0.621D-02-0.231D-01-0.327D-01 0.218D+00
 Coeff:      0.844D+00
 Gap=     0.398 Goal=   None    Shift=    0.000
 RMSDP=5.00D-06 MaxDP=5.77D-05 DE=-3.88D-07 OVMax= 8.69D-05

 Cycle   8  Pass 1  IDiag  1:
 E= -177.794573744845     Delta-E=       -0.000000046941 Rises=F Damp=F
 DIIS: error= 3.71D-06 at cycle   8 NSaved=   8.
 NSaved= 8 IEnMin= 8 EnMin= -177.794573744845     IErMin= 8 ErrMin= 3.71D-06
 ErrMax= 3.71D-06  0.00D+00 EMaxC= 1.00D-01 BMatC= 9.12D-10 BMatP= 4.30D-08
 IDIUse=1 WtCom= 1.00D+00 WtEn= 0.00D+00
 Coeff-Com: -0.199D-04 0.585D-04 0.152D-02 0.326D-02-0.152D-01-0.303D-01
 Coeff-Com: -0.920D-01 0.113D+01
 Coeff:     -0.199D-04 0.585D-04 0.152D-02 0.326D-02-0.152D-01-0.303D-01
 Coeff:     -0.920D-01 0.113D+01
 Gap=     0.398 Goal=   None    Shift=    0.000
 RMSDP=1.24D-06 MaxDP=1.22D-05 DE=-4.69D-08 OVMax= 2.25D-05

 Cycle   9  Pass 1  IDiag  1:
 E= -177.794573746355     Delta-E=       -0.000000001511 Rises=F Damp=F
 DIIS: error= 5.30D-07 at cycle   9 NSaved=   9.
 NSaved= 9 IEnMin= 9 EnMin= -177.794573746355     IErMin= 9 ErrMin= 5.30D-07
 ErrMax= 5.30D-07  0.00D+00 EMaxC= 1.00D-01 BMatC= 2.53D-11 BMatP= 9.12D-10
 IDIUse=1 WtCom= 1.00D+00 WtEn= 0.00D+00
 Coeff-Com:  0.602D-05-0.166D-04 0.182D-03 0.547D-03 0.803D-03-0.369D-02
 Coeff-Com: -0.284D-01-0.198D-01 0.105D+01
 Coeff:      0.602D-05-0.166D-04 0.182D-03 0.547D-03 0.803D-03-0.369D-02
 Coeff:     -0.284D-01-0.198D-01 0.105D+01
 Gap=     0.398 Goal=   None    Shift=    0.000
 RMSDP=1.84D-07 MaxDP=2.08D-06 DE=-1.51D-09 OVMax= 2.77D-06

 Cycle  10  Pass 1  IDiag  1:
 E= -177.794573746390     Delta-E=       -0.000000000035 Rises=F Damp=F
 DIIS: error= 7.43D-08 at cycle  10 NSaved=  10.
 NSaved=10 IEnMin=10 EnMin= -177.794573746390     IErMin=10 ErrMin= 7.43D-08
 ErrMax= 7.43D-08  0.00D+00 EMaxC= 1.00D-01 BMatC= 2.31D-13 BMatP= 2.53D-11
 IDIUse=1 WtCom= 1.00D+00 WtEn= 0.00D+00
 Coeff-Com:  0.129D-05-0.296D-05-0.333D-04-0.766D-04 0.297D-03 0.858D-03
 Coeff-Com:  0.254D-02-0.253D-01-0.266D-01 0.105D+01
 Coeff:      0.129D-05-0.296D-05-0.333D-04-0.766D-04 0.297D-03 0.858D-03
 Coeff:      0.254D-02-0.253D-01-0.266D-01 0.105D+01
 Gap=     0.398 Goal=   None    Shift=    0.000
 RMSDP=2.63D-08 MaxDP=3.17D-07 DE=-3.47D-11 OVMax= 2.63D-07

 Cycle  11  Pass 1  IDiag  1:
 E= -177.794573746391     Delta-E=       -0.000000000001 Rises=F Damp=F
 DIIS: error= 7.21D-09 at cycle  11 NSaved=  11.
 NSaved=11 IEnMin=11 EnMin= -177.794573746391     IErMin=11 ErrMin= 7.21D-09
 ErrMax= 7.21D-09  0.00D+00 EMaxC= 1.00D-01 BMatC= 2.79D-15 BMatP= 2.31D-13
 IDIUse=1 WtCom= 1.00D+00 WtEn= 0.00D+00
 Coeff-Com: -0.267D-06 0.643D-06 0.124D-05 0.995D-06-0.484D-04-0.564D-04
 Coeff-Com:  0.232D-03 0.356D-02-0.157D-01-0.109D+00 0.112D+01
 Coeff:     -0.267D-06 0.643D-06 0.124D-05 0.995D-06-0.484D-04-0.564D-04
 Coeff:      0.232D-03 0.356D-02-0.157D-01-0.109D+00 0.112D+01
 Gap=     0.398 Goal=   None    Shift=    0.000
 RMSDP=3.35D-09 MaxDP=3.91D-08 DE=-7.39D-13 OVMax= 2.98D-08

 Error on total polarization charges =  0.01509
 SCF Done:  E(RM052X) =  -177.794573746     A.U. after   11 cycles
            NFock= 11  Conv=0.34D-08     -V/T= 2.0080
 KE= 1.763858315201D+02 PE=-5.531372172712D+02 EE= 1.316882856461D+02
 SMD-CDS (non-electrostatic) energy       (kcal/mol) =       1.70
 (included in total energy above)
 Leave Link  502 at Thu Jul 10 14:23:16 2025, MaxMem=  2684354560 cpu:              37.0 elap:               2.0
 (Enter /apps/gaussian/g16c01/g16/l601.exe)
 Copying SCF densities to generalized density rwf, IOpCl= 0 IROHF=0.

 **********************************************************************

            Population analysis using the SCF Density.

 **********************************************************************

 Orbital symmetries:
       Occupied  (A) (A) (A) (A) (A) (A) (A) (A) (A) (A) (A) (A)
       Virtual   (A) (A) (A) (A) (A) (A) (A) (A) (A) (A) (A) (A)
                 (A) (A) (A) (A) (A) (A) (A) (A) (A) (A) (A) (A)
                 (A) (A) (A) (A) (A) (A) (A) (A) (A) (A) (A) (A)
                 (A) (A) (A)
 The electronic state is 1-A.
 Alpha  occ. eigenvalues --  -25.30317 -10.65566 -10.56650  -1.34318  -0.87173
 Alpha  occ. eigenvalues --   -0.69285  -0.60562  -0.55635  -0.54680  -0.47295
 Alpha  occ. eigenvalues --   -0.44562  -0.32234
 Alpha virt. eigenvalues --    0.07533   0.18235   0.20313   0.22413   0.30763
 Alpha virt. eigenvalues --    0.40153   0.56071   0.59557   0.64027   0.68222
 Alpha virt. eigenvalues --    0.69741   0.74410   0.95078   0.95318   1.03233
 Alpha virt. eigenvalues --    1.10858   1.14573   1.30463   1.31338   1.47258
 Alpha virt. eigenvalues --    1.48634   1.55567   1.75704   1.79665   1.91002
 Alpha virt. eigenvalues --    1.92412   1.97174   2.02440   2.10855   2.30571
 Alpha virt. eigenvalues --    2.35976   2.39022   2.59616   2.78207   2.92265
 Alpha virt. eigenvalues --    3.13219   4.14750   4.26655   4.42209
          Condensed to atoms (all electrons):
               1          2          3          4          5          6
     1  C    5.245531   0.617001   0.362131   0.369922  -0.048295  -0.066006
     2  C    0.617001   4.612295  -0.017382  -0.027090   0.279637   0.382738
     3  H    0.362131  -0.017382   0.463572  -0.022991   0.001694  -0.000519
     4  H    0.369922  -0.027090  -0.022991   0.465573  -0.001476   0.003548
     5  F   -0.048295   0.279637   0.001694  -0.001476   9.114931  -0.035483
     6  H   -0.066006   0.382738  -0.000519   0.003548  -0.035483   0.503239
 Mulliken charges:
               1
     1  C   -0.480285
     2  C    0.152801
     3  H    0.213495
     4  H    0.212515
     5  F   -0.311008
     6  H    0.212481
 Sum of Mulliken charges =  -0.00000
 Mulliken charges with hydrogens summed into heavy atoms:
               1
     1  C   -0.054275
     2  C    0.365283
     5  F   -0.311008
 Electronic spatial extent (au):  <R**2>=            152.8090
 Charge=             -0.0000 electrons
 Dipole moment (field-independent basis, Debye):
    X=             -1.4263    Y=              0.9794    Z=              0.0000  Tot=              1.7302
 Quadrupole moment (field-independent basis, Debye-Ang):
   XX=            -16.9474   YY=            -14.6281   ZZ=            -18.6373
   XY=              0.6828   XZ=             -0.0000   YZ=              0.0001
 Traceless Quadrupole moment (field-independent basis, Debye-Ang):
   XX=             -0.2098   YY=              2.1095   ZZ=             -1.8997
   XY=              0.6828   XZ=             -0.0000   YZ=              0.0001
 Octapole moment (field-independent basis, Debye-Ang**2):
  XXX=              3.5245  YYY=             -0.3205  ZZZ=              0.0000  XYY=              2.1021
  XXY=              0.3024  XXZ=              0.0001  XZZ=              4.6316  YZZ=             -0.5403
  YYZ=              0.0000  XYZ=             -0.0001
 Hexadecapole moment (field-independent basis, Debye-Ang**3):
 XXXX=           -112.4104 YYYY=            -32.3300 ZZZZ=            -17.0518 XXXY=             -4.5442
 XXXZ=             -0.0003 YYYX=              0.2511 YYYZ=              0.0000 ZZZX=             -0.0000
 ZZZY=             -0.0002 XXYY=            -24.8388 XXZZ=            -24.5830 YYZZ=             -9.7396
 XXYZ=              0.0000 YYXZ=              0.0000 ZZXY=             -0.7527
 N-N= 6.726852635848D+01 E-N=-5.531372171552D+02  KE= 1.763858315201D+02
 No NMR shielding tensors so no spin-rotation constants.
 Leave Link  601 at Thu Jul 10 14:23:16 2025, MaxMem=  2684354560 cpu:               3.3 elap:               0.2
 (Enter /apps/gaussian/g16c01/g16/l9999.exe)
 Unable to Open any file for archive entry.
 1\1\GINC-GADI-CPU-CLX-0118\SP\RM052X\6-31G(d)\C2H3F1\YR9300\10-Jul-202
 5\0\\#P M052X/6-31G* scrf(SMD,solvent=n-octanol)\\H3F1_oct_M05-2x\\0,1
 \C,0,-1.179385,-0.200585,-0.000003\C,0,-0.025369,0.438493,0.\H,0,-2.10
 179,0.367539,0.000022\H,0,-1.233011,-1.283978,-0.00002\F,0,1.160182,-0
 .224806,-0.000001\H,0,0.121687,1.512251,0.000029\\Version=ES64L-G16Rev
 C.01\State=1-A\HF=-177.7945737\RMSD=3.355e-09\Dipole=-0.5611402,0.3853
 403,0.0000118\Quadrupole=-0.1559858,1.5683581,-1.4123722,0.5076691,-0.
 0000266,0.0000609\PG=C01 [X(C2H3F1)]\\@
 The archive entry for this job was punched.


 Mondays are the potholes in the road of life.
                                -- Tom Wilson
 Job cpu time:       0 days  0 hours  0 minutes 58.0 seconds.
 Elapsed time:       0 days  0 hours  0 minutes  3.3 seconds.
 File lengths (MBytes):  RWF=     12 Int=      0 D2E=      0 Chk=      1 Scr=      1
 Normal termination of Gaussian 16 at Thu Jul 10 14:23:16 2025.
