 Entering Gaussian System, Link 0=g16
 Initial command:
 /apps/gaussian/g16c01/g16/l1.exe "/jobfs/145007199.gadi-pbs/Gau-2974455.inp" -scrdir="/jobfs/145007199.gadi-pbs/"
 Entering Link 1 = /apps/gaussian/g16c01/g16/l1.exe PID=   2974456.
  
 Copyright (c) 1988-2019, Gaussian, Inc.  All Rights Reserved.
  
 This is part of the Gaussian(R) 16 program.  It is based on
 the Gaussian(R) 09 system (copyright 2009, Gaussian, Inc.),
 the Gaussian(R) 03 system (copyright 2003, Gaussian, Inc.),
 the Gaussian(R) 98 system (copyright 1998, Gaussian, Inc.),
 the Gaussian(R) 94 system (copyright 1995, Gaussian, Inc.),
 the Gaussian 92(TM) system (copyright 1992, Gaussian, Inc.),
 the Gaussian 90(TM) system (copyright 1990, Gaussian, Inc.),
 the Gaussian 88(TM) system (copyright 1988, Gaussian, Inc.),
 the Gaussian 86(TM) system (copyright 1986, Carnegie Mellon
 University), and the Gaussian 82(TM) system (copyright 1983,
 Carnegie Mellon University). Gaussian is a federally registered
 trademark of Gaussian, Inc.
  
 This software contains proprietary and confidential information,
 including trade secrets, belonging to Gaussian, Inc.
  
 This software is provided under written license and may be
 used, copied, transmitted, or stored only in accord with that
 written license.
  
 The following legend is applicable only to US Government
 contracts under FAR:
  
                    RESTRICTED RIGHTS LEGEND
  
 Use, reproduction and disclosure by the US Government is
 subject to restrictions as set forth in subparagraphs (a)
 and (c) of the Commercial Computer Software - Restricted
 Rights clause in FAR 52.227-19.
  
 Gaussian, Inc.
 340 Quinnipiac St., Bldg. 40, Wallingford CT 06492
  
  
 ---------------------------------------------------------------
 Warning -- This program may not be used in any manner that
 competes with the business of Gaussian, Inc. or will provide
 assistance to any competitor of Gaussian, Inc.  The licensee
 of this program is prohibited from giving any competitor of
 Gaussian, Inc. access to this program.  By using this program,
 the user acknowledges that Gaussian, Inc. is engaged in the
 business of creating and licensing software in the field of
 computational chemistry and represents and warrants to the
 licensee that it is not a competitor of Gaussian, Inc. and that
 it will not use this program in any manner prohibited above.
 ---------------------------------------------------------------
  

 Cite this work as:
 Gaussian 16, Revision C.01,
 M. J. Frisch, G. W. Trucks, H. B. Schlegel, G. E. Scuseria, 
 M. A. Robb, J. R. Cheeseman, G. Scalmani, V. Barone, 
 G. A. Petersson, H. Nakatsuji, X. Li, M. Caricato, A. V. Marenich, 
 J. Bloino, B. G. Janesko, R. Gomperts, B. Mennucci, H. P. Hratchian, 
 J. V. Ortiz, A. F. Izmaylov, J. L. Sonnenberg, D. Williams-Young, 
 F. Ding, F. Lipparini, F. Egidi, J. Goings, B. Peng, A. Petrone, 
 T. Henderson, D. Ranasinghe, V. G. Zakrzewski, J. Gao, N. Rega, 
 G. Zheng, W. Liang, M. Hada, M. Ehara, K. Toyota, R. Fukuda, 
 J. Hasegawa, M. Ishida, T. Nakajima, Y. Honda, O. Kitao, H. Nakai, 
 T. Vreven, K. Throssell, J. A. Montgomery, Jr., J. E. Peralta, 
 F. Ogliaro, M. J. Bearpark, J. J. Heyd, E. N. Brothers, K. N. Kudin, 
 V. N. Staroverov, T. A. Keith, R. Kobayashi, J. Normand, 
 K. Raghavachari, A. P. Rendell, J. C. Burant, S. S. Iyengar, 
 J. Tomasi, M. Cossi, J. M. Millam, M. Klene, C. Adamo, R. Cammi, 
 J. W. Ochterski, R. L. Martin, K. Morokuma, O. Farkas, 
 J. B. Foresman, and D. J. Fox, Gaussian, Inc., Wallingford CT, 2019.
 
 ******************************************
 Gaussian 16:  ES64L-G16RevC.01  3-Jul-2019
                10-Jul-2025 
 ******************************************
 %chk=H2F2_iso1_oct_M05-2x.chk
 %mem=20GB
 %nprocshared=20
 Will use up to   20 processors via shared memory.
 -------------------------------------------
 #P M052X/6-31G* scrf(SMD,solvent=n-octanol)
 -------------------------------------------
 1/38=1,172=1/1;
 2/12=2,17=6,18=5,40=1/2;
 3/5=1,6=6,7=1,11=2,25=1,30=1,70=32201,72=25,74=-38/1,2,3;
 4//1;
 5/5=2,38=5,53=25/2;
 6/7=2,8=2,9=2,10=2,28=1/1;
 99/5=1,9=1/99;
 Leave Link    1 at Thu Jul 10 14:19:00 2025, MaxMem=  2684354560 cpu:               0.9 elap:               0.1
 (Enter /apps/gaussian/g16c01/g16/l101.exe)
 --------------------
 H2F2_iso1_oct_M05-2x
 --------------------
 Symbolic Z-matrix:
 Charge =  0 Multiplicity = 1
 C                     1.38555   0.        0.00002 
 C                     0.07018   0.        0.00005 
 H                     1.92471   0.93708  -0.00002 
 H                     1.92471  -0.93708   0.00001 
 F                    -0.6991   -1.08289  0. 
 F                    -0.6991    1.08289  -0.00004 
 
 ITRead=  0  0  0  0  0  0
 MicOpt= -1 -1 -1 -1 -1 -1
 NAtoms=      6 NQM=        6 NQMF=       0 NMMI=      0 NMMIF=      0
                NMic=       0 NMicF=      0.
                    Isotopes and Nuclear Properties:
 (Nuclear quadrupole moments (NQMom) in fm**2, nuclear magnetic moments (NMagM)
  in nuclear magnetons)

  Atom         1           2           3           4           5           6
 IAtWgt=          12          12           1           1          19          19
 AtmWgt=  12.0000000  12.0000000   1.0078250   1.0078250  18.9984033  18.9984033
 NucSpn=           0           0           1           1           1           1
 AtZEff=  -0.0000000  -0.0000000  -0.0000000  -0.0000000  -0.0000000  -0.0000000
 NQMom=    0.0000000   0.0000000   0.0000000   0.0000000   0.0000000   0.0000000
 NMagM=    0.0000000   0.0000000   2.7928460   2.7928460   2.6288670   2.6288670
 AtZNuc=   6.0000000   6.0000000   1.0000000   1.0000000   9.0000000   9.0000000
 Leave Link  101 at Thu Jul 10 14:19:00 2025, MaxMem=  2684354560 cpu:               3.3 elap:               0.2
 (Enter /apps/gaussian/g16c01/g16/l202.exe)
                          Input orientation:                          
 ---------------------------------------------------------------------
 Center     Atomic      Atomic             Coordinates (Angstroms)
 Number     Number       Type             X           Y           Z
 ---------------------------------------------------------------------
      1          6           0        1.385546    0.000000    0.000024
      2          6           0        0.070175    0.000000    0.000048
      3          1           0        1.924713    0.937081   -0.000024
      4          1           0        1.924712   -0.937081    0.000011
      5          9           0       -0.699097   -1.082885   -0.000004
      6          9           0       -0.699097    1.082885   -0.000043
 ---------------------------------------------------------------------
                    Distance matrix (angstroms):
                    1          2          3          4          5
     1  C    0.000000
     2  C    1.315371   0.000000
     3  H    1.081121   2.077843   0.000000
     4  H    1.081120   2.077842   1.874162   0.000000
     5  F    2.349122   1.328314   3.311290   2.627857   0.000000
     6  F    2.349122   1.328314   2.627858   3.311289   2.165770
                    6
     6  F    0.000000
 Stoichiometry    C2H2F2
 Framework group  C1[X(C2H2F2)]
 Deg. of freedom    12
 Full point group                 C1      NOp   1
 Largest Abelian subgroup         C1      NOp   1
 Largest concise Abelian subgroup C1      NOp   1
                         Standard orientation:                         
 ---------------------------------------------------------------------
 Center     Atomic      Atomic             Coordinates (Angstroms)
 Number     Number       Type             X           Y           Z
 ---------------------------------------------------------------------
      1          6           0        1.385546   -0.000000    0.000024
      2          6           0        0.070175   -0.000000    0.000048
      3          1           0        1.924713    0.937081   -0.000024
      4          1           0        1.924712   -0.937081    0.000011
      5          9           0       -0.699097   -1.082885   -0.000004
      6          9           0       -0.699097    1.082885   -0.000043
 ---------------------------------------------------------------------
 Rotational constants (GHZ):          10.9090562          10.3755835           5.3178172
 Leave Link  202 at Thu Jul 10 14:19:00 2025, MaxMem=  2684354560 cpu:               0.5 elap:               0.0
 (Enter /apps/gaussian/g16c01/g16/l301.exe)
 Standard basis: 6-31G(d) (6D, 7F)
 Ernie: Thresh=  0.10000D-02 Tol=  0.10000D-05 Strict=F.
 There are    64 symmetry adapted cartesian basis functions of A   symmetry.
 There are    64 symmetry adapted basis functions of A   symmetry.
    64 basis functions,   120 primitive gaussians,    64 cartesian basis functions
    16 alpha electrons       16 beta electrons
       nuclear repulsion energy       117.3415983008 Hartrees.
 IExCor= 3428 DFT=T Ex+Corr=M052X ExCW=0 ScaHFX=  0.560000
 ScaDFX=  0.440000  0.440000  1.000000  1.000000 ScalE2=  1.000000  1.000000
 IRadAn=      5 IRanWt=     -1 IRanGd=            0 ICorTp=0 IEmpDi=  4
 NAtoms=    6 NActive=    6 NUniq=    6 SFac= 1.00D+00 NAtFMM=   60 NAOKFM=F Big=F
 Integral buffers will be    131072 words long.
 Raffenetti 2 integral format.
 Two-electron integral symmetry is turned on.
 ------------------------------------------------------------------------------
 Polarizable Continuum Model (PCM)
 =================================
 Model                : PCM.
 Atomic radii         : SMD-Coulomb.
 Polarization charges : Total charges.
 Charge compensation  : None.
 Solution method      : On-the-fly selection.
 Cavity type          : VdW (van der Waals Surface) (Alpha=1.000).
 Cavity algorithm     : GePol (No added spheres)
                        Default sphere list used, NSphG=    6.
                        Lebedev-Laikov grids with approx.  5.0 points / Ang**2.
                        Smoothing algorithm: York/Karplus (Gamma=1.0000).
                        Polarization charges: spherical gaussians, with
                                              point-specific exponents (IZeta= 3).
                        Self-potential: point-specific (ISelfS= 7).
                        Self-field    : sphere-specific E.n sum rule (ISelfD= 2).
 Solvent              : n-Octanol, Eps=   9.862900 Eps(inf)=   2.043470
 ------------------------------------------------------------------------------
 Spheres list:
 ISph  on   Nord     Re0    Alpha      Xe            Ye            Ze
    1   C      1    1.8500  1.000      1.385546     -0.000000      0.000024
    2   C      2    1.8500  1.000      0.070175     -0.000000      0.000048
    3   H      3    1.2000  1.000      1.924713      0.937081     -0.000024
    4   H      4    1.2000  1.000      1.924712     -0.937081      0.000011
    5   F      5    1.7300  1.000     -0.699097     -1.082885     -0.000004
    6   F      6    1.7300  1.000     -0.699097      1.082885     -0.000043
 ------------------------------------------------------------------------------
 GePol: Number of generator spheres                  =       6
 GePol: Total number of spheres                      =       6
 GePol: Number of exposed spheres                    =       6 (100.00%)
 GePol: Number of points                             =     625
 GePol: Average weight of points                     =       0.14
 GePol: Minimum weight of points                     =   0.61D-07
 GePol: Maximum weight of points                     =    0.21501
 GePol: Number of points with low weight             =      28
 GePol: Fraction of low-weight points (<1% of avg)   =       4.48%
 GePol: Cavity surface area                          =     84.507 Ang**2
 GePol: Cavity volume                                =     62.603 Ang**3
 ------------------------------------------------------------------------------
 Atomic radii for non-electrostatic terms: SMD-CDS.
 ------------------------------------------------------------------------------
 PCM non-electrostatic energy =         0.0032140957 Hartrees.
 Nuclear repulsion after PCM non-electrostatic terms =      117.3448123965 Hartrees.
 Leave Link  301 at Thu Jul 10 14:19:01 2025, MaxMem=  2684354560 cpu:               1.2 elap:               0.1
 (Enter /apps/gaussian/g16c01/g16/l302.exe)
 NPDir=0 NMtPBC=     1 NCelOv=     1 NCel=       1 NClECP=     1 NCelD=      1
         NCelK=      1 NCelE2=     1 NClLst=     1 CellRange=     0.0.
 One-electron integrals computed using PRISM.
 One-electron integral symmetry used in STVInt
 NBasis=    64 RedAO= T EigKep=  3.33D-03  NBF=    64
 NBsUse=    64 1.00D-06 EigRej= -1.00D+00 NBFU=    64
 Precomputing XC quadrature grid using
 IXCGrd= 4 IRadAn=           5 IRanWt=          -1 IRanGd=           0 AccXCQ= 0.00D+00.
 Generated NRdTot=       0 NPtTot=           0 NUsed=           0 NTot=          32
 NSgBfM=    64    64    64    64    64 MxSgAt=     6 MxSgA2=     6.
 Leave Link  302 at Thu Jul 10 14:19:01 2025, MaxMem=  2684354560 cpu:               5.3 elap:               0.3
 (Enter /apps/gaussian/g16c01/g16/l303.exe)
 DipDrv:  MaxL=1.
 Leave Link  303 at Thu Jul 10 14:19:01 2025, MaxMem=  2684354560 cpu:               1.1 elap:               0.1
 (Enter /apps/gaussian/g16c01/g16/l401.exe)
 ExpMin= 1.61D-01 ExpMax= 7.00D+03 ExpMxC= 1.05D+03 IAcc=3 IRadAn=         5 AccDes= 0.00D+00
 Harris functional with IExCor= 1009 and IRadAn=       5 diagonalized for initial guess.
 HarFok:  IExCor= 1009 AccDes= 0.00D+00 IRadAn=         5 IDoV= 1 UseB2=F ITyADJ=14
 ICtDFT=  3500011 ScaDFX=  1.000000  1.000000  1.000000  1.000000
 FoFCou: FMM=F IPFlag=           0 FMFlag=      100000 FMFlg1=           0
         NFxFlg=           0 DoJE=T BraDBF=F KetDBF=T FulRan=T
         wScrn=  0.000000 ICntrl=       500 IOpCl=  0 I1Cent=   200000004 NGrid=           0
         NMat0=    1 NMatS0=      1 NMatT0=    0 NMatD0=    1 NMtDS0=    0 NMtDT0=    0
 Petite list used in FoFCou.
 Harris En= -276.819393666314    
 JPrj=0 DoOrth=F DoCkMO=F.
 Leave Link  401 at Thu Jul 10 14:19:01 2025, MaxMem=  2684354560 cpu:               5.0 elap:               0.3
 (Enter /apps/gaussian/g16c01/g16/l502.exe)
 Keep R1 ints in memory in canonical form, NReq=19962716.
 FoFCou: FMM=F IPFlag=           0 FMFlag=           0 FMFlg1=           0
         NFxFlg=           0 DoJE=F BraDBF=F KetDBF=F FulRan=T
         wScrn=  0.000000 ICntrl=       600 IOpCl=  0 I1Cent=           0 NGrid=           0
         NMat0=    1 NMatS0=   2080 NMatT0=    0 NMatD0=    1 NMtDS0=    0 NMtDT0=    0
 Symmetry not used in FoFCou.
 Two-electron integral symmetry not used.
 Closed shell SCF:
 Using DIIS extrapolation, IDIIS=  1040.
 NGot=  2684354560 LenX=  2682179902 LenY=  2682175365
 Requested convergence on RMS density matrix=1.00D-08 within 128 cycles.
 Requested convergence on MAX density matrix=1.00D-06.
 Requested convergence on             energy=1.00D-06.
 No special actions if energy rises.

 Cycle   1  Pass 1  IDiag  1:
 Inv3:  Mode=1 IEnd=     1171875.
 Iteration    1 A*A^-1 deviation from unit magnitude is 2.44D-15 for    384.
 Iteration    1 A*A^-1 deviation from orthogonality  is 1.21D-15 for    542     80.
 Iteration    1 A^-1*A deviation from unit magnitude is 2.22D-15 for    381.
 Iteration    1 A^-1*A deviation from orthogonality  is 1.04D-10 for    516    453.
 Iteration    2 A*A^-1 deviation from unit magnitude is 1.11D-15 for     14.
 Iteration    2 A*A^-1 deviation from orthogonality  is 1.10D-15 for    453     12.
 Iteration    2 A^-1*A deviation from unit magnitude is 9.99D-16 for    243.
 Iteration    2 A^-1*A deviation from orthogonality  is 4.22D-16 for     63     62.
 E= -276.919834072282    
 DIIS: error= 4.31D-02 at cycle   1 NSaved=   1.
 NSaved= 1 IEnMin= 1 EnMin= -276.919834072282     IErMin= 1 ErrMin= 4.31D-02
 ErrMax= 4.31D-02  0.00D+00 EMaxC= 1.00D-01 BMatC= 1.21D-01 BMatP= 1.21D-01
 IDIUse=3 WtCom= 5.69D-01 WtEn= 4.31D-01
 Coeff-Com:  0.100D+01
 Coeff-En:   0.100D+01
 Coeff:      0.100D+01
 Gap=     0.330 Goal=   None    Shift=    0.000
 GapD=    0.330 DampG=1.000 DampE=0.500 DampFc=0.5000 IDamp=-1.
 Damping current iteration by 5.00D-01
 RMSDP=7.69D-03 MaxDP=1.99D-01              OVMax= 2.88D-01

 Cycle   2  Pass 1  IDiag  1:
 E= -276.973950286713     Delta-E=       -0.054116214430 Rises=F Damp=T
 DIIS: error= 8.30D-03 at cycle   2 NSaved=   2.
 NSaved= 2 IEnMin= 2 EnMin= -276.973950286713     IErMin= 2 ErrMin= 8.30D-03
 ErrMax= 8.30D-03  0.00D+00 EMaxC= 1.00D-01 BMatC= 7.31D-03 BMatP= 1.21D-01
 IDIUse=3 WtCom= 9.17D-01 WtEn= 8.30D-02
 Coeff-Com: -0.379D-01 0.104D+01
 Coeff-En:   0.000D+00 0.100D+01
 Coeff:     -0.348D-01 0.103D+01
 Gap=     0.389 Goal=   None    Shift=    0.000
 RMSDP=1.35D-03 MaxDP=2.29D-02 DE=-5.41D-02 OVMax= 1.45D-01

 Cycle   3  Pass 1  IDiag  1:
 E= -277.027040003219     Delta-E=       -0.053089716507 Rises=F Damp=F
 DIIS: error= 4.72D-03 at cycle   3 NSaved=   3.
 NSaved= 3 IEnMin= 3 EnMin= -277.027040003219     IErMin= 3 ErrMin= 4.72D-03
 ErrMax= 4.72D-03  0.00D+00 EMaxC= 1.00D-01 BMatC= 1.07D-03 BMatP= 7.31D-03
 IDIUse=3 WtCom= 9.53D-01 WtEn= 4.72D-02
 Coeff-Com: -0.396D-01 0.237D+00 0.803D+00
 Coeff-En:   0.000D+00 0.000D+00 0.100D+01
 Coeff:     -0.378D-01 0.226D+00 0.812D+00
 Gap=     0.404 Goal=   None    Shift=    0.000
 RMSDP=5.89D-04 MaxDP=1.43D-02 DE=-5.31D-02 OVMax= 2.15D-02

 Cycle   4  Pass 1  IDiag  1:
 E= -277.027993087131     Delta-E=       -0.000953083911 Rises=F Damp=F
 DIIS: error= 1.42D-03 at cycle   4 NSaved=   4.
 NSaved= 4 IEnMin= 4 EnMin= -277.027993087131     IErMin= 4 ErrMin= 1.42D-03
 ErrMax= 1.42D-03  0.00D+00 EMaxC= 1.00D-01 BMatC= 1.45D-04 BMatP= 1.07D-03
 IDIUse=3 WtCom= 9.86D-01 WtEn= 1.42D-02
 Coeff-Com: -0.213D-02-0.661D-02 0.263D+00 0.745D+00
 Coeff-En:   0.000D+00 0.000D+00 0.000D+00 0.100D+01
 Coeff:     -0.210D-02-0.652D-02 0.260D+00 0.749D+00
 Gap=     0.406 Goal=   None    Shift=    0.000
 RMSDP=1.51D-04 MaxDP=2.64D-03 DE=-9.53D-04 OVMax= 2.48D-03

 Cycle   5  Pass 1  IDiag  1:
 E= -277.028118830065     Delta-E=       -0.000125742934 Rises=F Damp=F
 DIIS: error= 1.79D-04 at cycle   5 NSaved=   5.
 NSaved= 5 IEnMin= 5 EnMin= -277.028118830065     IErMin= 5 ErrMin= 1.79D-04
 ErrMax= 1.79D-04  0.00D+00 EMaxC= 1.00D-01 BMatC= 1.45D-06 BMatP= 1.45D-04
 IDIUse=3 WtCom= 9.98D-01 WtEn= 1.79D-03
 Coeff-Com:  0.311D-02-0.847D-02-0.458D-01-0.133D+00 0.118D+01
 Coeff-En:   0.000D+00 0.000D+00 0.000D+00 0.000D+00 0.100D+01
 Coeff:      0.310D-02-0.845D-02-0.457D-01-0.133D+00 0.118D+01
 Gap=     0.406 Goal=   None    Shift=    0.000
 RMSDP=3.97D-05 MaxDP=6.21D-04 DE=-1.26D-04 OVMax= 9.66D-04

 Cycle   6  Pass 1  IDiag  1:
 E= -277.028121652511     Delta-E=       -0.000002822446 Rises=F Damp=F
 DIIS: error= 3.61D-05 at cycle   6 NSaved=   6.
 NSaved= 6 IEnMin= 6 EnMin= -277.028121652511     IErMin= 6 ErrMin= 3.61D-05
 ErrMax= 3.61D-05  0.00D+00 EMaxC= 1.00D-01 BMatC= 7.66D-08 BMatP= 1.45D-06
 IDIUse=1 WtCom= 1.00D+00 WtEn= 0.00D+00
 Coeff-Com:  0.458D-03-0.521D-03-0.655D-02-0.321D-01 0.411D-01 0.998D+00
 Coeff:      0.458D-03-0.521D-03-0.655D-02-0.321D-01 0.411D-01 0.998D+00
 Gap=     0.406 Goal=   None    Shift=    0.000
 RMSDP=6.84D-06 MaxDP=1.04D-04 DE=-2.82D-06 OVMax= 1.80D-04

 Cycle   7  Pass 1  IDiag  1:
 E= -277.028121747861     Delta-E=       -0.000000095350 Rises=F Damp=F
 DIIS: error= 1.33D-05 at cycle   7 NSaved=   7.
 NSaved= 7 IEnMin= 7 EnMin= -277.028121747861     IErMin= 7 ErrMin= 1.33D-05
 ErrMax= 1.33D-05  0.00D+00 EMaxC= 1.00D-01 BMatC= 1.30D-08 BMatP= 7.66D-08
 IDIUse=1 WtCom= 1.00D+00 WtEn= 0.00D+00
 Coeff-Com:  0.125D-03-0.771D-04-0.108D-02-0.981D-02-0.302D-01 0.362D+00
 Coeff-Com:  0.679D+00
 Coeff:      0.125D-03-0.771D-04-0.108D-02-0.981D-02-0.302D-01 0.362D+00
 Coeff:      0.679D+00
 Gap=     0.406 Goal=   None    Shift=    0.000
 RMSDP=1.92D-06 MaxDP=2.46D-05 DE=-9.54D-08 OVMax= 2.50D-05

 Cycle   8  Pass 1  IDiag  1:
 E= -277.028121757428     Delta-E=       -0.000000009567 Rises=F Damp=F
 DIIS: error= 4.30D-06 at cycle   8 NSaved=   8.
 NSaved= 8 IEnMin= 8 EnMin= -277.028121757428     IErMin= 8 ErrMin= 4.30D-06
 ErrMax= 4.30D-06  0.00D+00 EMaxC= 1.00D-01 BMatC= 1.72D-09 BMatP= 1.30D-08
 IDIUse=1 WtCom= 1.00D+00 WtEn= 0.00D+00
 Coeff-Com: -0.147D-05-0.139D-04 0.135D-02 0.371D-02-0.140D-01-0.904D-01
 Coeff-Com:  0.233D+00 0.866D+00
 Coeff:     -0.147D-05-0.139D-04 0.135D-02 0.371D-02-0.140D-01-0.904D-01
 Coeff:      0.233D+00 0.866D+00
 Gap=     0.406 Goal=   None    Shift=    0.000
 RMSDP=6.44D-07 MaxDP=1.08D-05 DE=-9.57D-09 OVMax= 1.18D-05

 Cycle   9  Pass 1  IDiag  1:
 E= -277.028121758791     Delta-E=       -0.000000001363 Rises=F Damp=F
 DIIS: error= 3.57D-07 at cycle   9 NSaved=   9.
 NSaved= 9 IEnMin= 9 EnMin= -277.028121758791     IErMin= 9 ErrMin= 3.57D-07
 ErrMax= 3.57D-07  0.00D+00 EMaxC= 1.00D-01 BMatC= 1.12D-11 BMatP= 1.72D-09
 IDIUse=1 WtCom= 1.00D+00 WtEn= 0.00D+00
 Coeff-Com:  0.213D-05-0.593D-05 0.556D-04 0.249D-03 0.220D-03-0.105D-01
 Coeff-Com: -0.136D-01 0.599D-02 0.102D+01
 Coeff:      0.213D-05-0.593D-05 0.556D-04 0.249D-03 0.220D-03-0.105D-01
 Coeff:     -0.136D-01 0.599D-02 0.102D+01
 Gap=     0.406 Goal=   None    Shift=    0.000
 RMSDP=9.84D-08 MaxDP=1.35D-06 DE=-1.36D-09 OVMax= 1.53D-06

 Cycle  10  Pass 1  IDiag  1:
 E= -277.028121758806     Delta-E=       -0.000000000014 Rises=F Damp=F
 DIIS: error= 5.16D-08 at cycle  10 NSaved=  10.
 NSaved=10 IEnMin=10 EnMin= -277.028121758806     IErMin=10 ErrMin= 5.16D-08
 ErrMax= 5.16D-08  0.00D+00 EMaxC= 1.00D-01 BMatC= 1.79D-13 BMatP= 1.12D-11
 IDIUse=1 WtCom= 1.00D+00 WtEn= 0.00D+00
 Coeff-Com:  0.717D-06-0.156D-05-0.335D-04-0.917D-04 0.383D-03 0.267D-02
 Coeff-Com: -0.692D-02-0.229D-01-0.112D-01 0.104D+01
 Coeff:      0.717D-06-0.156D-05-0.335D-04-0.917D-04 0.383D-03 0.267D-02
 Coeff:     -0.692D-02-0.229D-01-0.112D-01 0.104D+01
 Gap=     0.406 Goal=   None    Shift=    0.000
 RMSDP=1.61D-08 MaxDP=2.46D-07 DE=-1.43D-11 OVMax= 2.05D-07

 Cycle  11  Pass 1  IDiag  1:
 E= -277.028121758806     Delta-E=       -0.000000000000 Rises=F Damp=F
 DIIS: error= 6.04D-09 at cycle  11 NSaved=  11.
 NSaved=11 IEnMin=11 EnMin= -277.028121758806     IErMin=11 ErrMin= 6.04D-09
 ErrMax= 6.04D-09  0.00D+00 EMaxC= 1.00D-01 BMatC= 3.08D-15 BMatP= 1.79D-13
 IDIUse=1 WtCom= 1.00D+00 WtEn= 0.00D+00
 Coeff-Com: -0.173D-06 0.390D-06 0.245D-05 0.453D-05-0.493D-04 0.412D-04
 Coeff-Com:  0.941D-03 0.219D-02-0.259D-01-0.720D-01 0.109D+01
 Coeff:     -0.173D-06 0.390D-06 0.245D-05 0.453D-05-0.493D-04 0.412D-04
 Coeff:      0.941D-03 0.219D-02-0.259D-01-0.720D-01 0.109D+01
 Gap=     0.406 Goal=   None    Shift=    0.000
 RMSDP=1.89D-09 MaxDP=2.01D-08 DE=-5.68D-14 OVMax= 3.19D-08

 Error on total polarization charges =  0.01074
 SCF Done:  E(RM052X) =  -277.028121759     A.U. after   11 cycles
            NFock= 11  Conv=0.19D-08     -V/T= 2.0075
 KE= 2.749620011099D+02 PE=-8.897374500722D+02 EE= 2.204025148069D+02
 SMD-CDS (non-electrostatic) energy       (kcal/mol) =       2.02
 (included in total energy above)
 Leave Link  502 at Thu Jul 10 14:19:03 2025, MaxMem=  2684354560 cpu:              40.1 elap:               2.1
 (Enter /apps/gaussian/g16c01/g16/l601.exe)
 Copying SCF densities to generalized density rwf, IOpCl= 0 IROHF=0.

 **********************************************************************

            Population analysis using the SCF Density.

 **********************************************************************

 Orbital symmetries:
       Occupied  (A) (A) (A) (A) (A) (A) (A) (A) (A) (A) (A) (A)
                 (A) (A) (A) (A)
       Virtual   (A) (A) (A) (A) (A) (A) (A) (A) (A) (A) (A) (A)
                 (A) (A) (A) (A) (A) (A) (A) (A) (A) (A) (A) (A)
                 (A) (A) (A) (A) (A) (A) (A) (A) (A) (A) (A) (A)
                 (A) (A) (A) (A) (A) (A) (A) (A) (A) (A) (A) (A)
 The electronic state is 1-A.
 Alpha  occ. eigenvalues --  -25.33940 -25.33939 -10.75120 -10.57390  -1.42066
 Alpha  occ. eigenvalues --   -1.35536  -0.88882  -0.73480  -0.66706  -0.61855
 Alpha  occ. eigenvalues --   -0.60847  -0.53987  -0.52577  -0.51231  -0.48557
 Alpha  occ. eigenvalues --   -0.32369
 Alpha virt. eigenvalues --    0.08254   0.18335   0.20039   0.23338   0.33995
 Alpha virt. eigenvalues --    0.37978   0.56386   0.58314   0.60850   0.65570
 Alpha virt. eigenvalues --    0.68765   0.72358   0.90789   1.00782   1.02064
 Alpha virt. eigenvalues --    1.10287   1.17570   1.24643   1.31042   1.32916
 Alpha virt. eigenvalues --    1.42912   1.45978   1.47369   1.47923   1.67007
 Alpha virt. eigenvalues --    1.75841   1.78198   1.86325   1.86447   1.91330
 Alpha virt. eigenvalues --    2.02910   2.04171   2.07417   2.08190   2.13713
 Alpha virt. eigenvalues --    2.22503   2.31279   2.49770   2.59150   2.65555
 Alpha virt. eigenvalues --    2.79853   3.05396   3.13586   3.19184   4.12661
 Alpha virt. eigenvalues --    4.27596   4.69412   5.02243
          Condensed to atoms (all electrons):
               1          2          3          4          5          6
     1  C    5.348854   0.595283   0.360867   0.360867  -0.063273  -0.063273
     2  C    0.595283   4.184891  -0.017157  -0.017157   0.325155   0.325155
     3  H    0.360867  -0.017157   0.441985  -0.018417   0.001584  -0.000404
     4  H    0.360867  -0.017157  -0.018417   0.441985  -0.000404   0.001584
     5  F   -0.063273   0.325155   0.001584  -0.000404   9.045111  -0.044378
     6  F   -0.063273   0.325155  -0.000404   0.001584  -0.044378   9.045111
 Mulliken charges:
               1
     1  C   -0.539324
     2  C    0.603829
     3  H    0.231542
     4  H    0.231542
     5  F   -0.263795
     6  F   -0.263795
 Sum of Mulliken charges =  -0.00000
 Mulliken charges with hydrogens summed into heavy atoms:
               1
     1  C   -0.076239
     2  C    0.603829
     5  F   -0.263795
     6  F   -0.263795
 Electronic spatial extent (au):  <R**2>=            227.6212
 Charge=             -0.0000 electrons
 Dipole moment (field-independent basis, Debye):
    X=              1.5556    Y=             -0.0000    Z=              0.0000  Tot=              1.5556
 Quadrupole moment (field-independent basis, Debye-Ang):
   XX=            -19.5544   YY=            -21.4557   ZZ=            -22.0194
   XY=              0.0000   XZ=             -0.0002   YZ=             -0.0000
 Traceless Quadrupole moment (field-independent basis, Debye-Ang):
   XX=              1.4554   YY=             -0.4459   ZZ=             -1.0095
   XY=              0.0000   XZ=             -0.0002   YZ=             -0.0000
 Octapole moment (field-independent basis, Debye-Ang**2):
  XXX=             -5.7711  YYY=             -0.0000  ZZZ=             -0.0006  XYY=             -0.0155
  XXY=              0.0000  XXZ=             -0.0005  XZZ=             -5.7262  YZZ=              0.0000
  YYZ=             -0.0002  XYZ=             -0.0001
 Hexadecapole moment (field-independent basis, Debye-Ang**3):
 XXXX=           -123.7011 YYYY=            -87.2222 ZZZZ=            -18.0488 XXXY=              0.0000
 XXXZ=             -0.0017 YYYX=              0.0000 YYYZ=              0.0006 ZZZX=             -0.0013
 ZZZY=              0.0006 XXYY=            -31.6492 XXZZ=            -27.8298 YYZZ=            -17.8166
 XXYZ=              0.0001 YYXZ=             -0.0004 ZZXY=              0.0000
 N-N= 1.173448123965D+02 E-N=-8.897374499395D+02  KE= 2.749620011099D+02
 No NMR shielding tensors so no spin-rotation constants.
 Leave Link  601 at Thu Jul 10 14:19:03 2025, MaxMem=  2684354560 cpu:               2.7 elap:               0.1
 (Enter /apps/gaussian/g16c01/g16/l9999.exe)
 Unable to Open any file for archive entry.
 1\1\GINC-GADI-CPU-CLX-0504\SP\RM052X\6-31G(d)\C2H2F2\YR9300\10-Jul-202
 5\0\\#P M052X/6-31G* scrf(SMD,solvent=n-octanol)\\H2F2_iso1_oct_M05-2x
 \\0,1\C,0,1.385546,0.,0.000024\C,0,0.070175,0.,0.000048\H,0,1.924713,0
 .937081,-0.000024\H,0,1.924712,-0.937081,0.000011\F,0,-0.699097,-1.082
 885,-0.000004\F,0,-0.699097,1.082885,-0.000043\\Version=ES64L-G16RevC.
 01\State=1-A\HF=-277.0281218\RMSD=1.893e-09\Dipole=0.6120183,0.,0.0000
 139\Quadrupole=1.0820656,-0.3315119,-0.7505537,0.000001,-0.0001418,-0.
 0000089\PG=C01 [X(C2H2F2)]\\@
 The archive entry for this job was punched.


 PATIENCE IS THE ABILITY TO IDLE YOUR MOTOR WHEN
 YOU FEEL LIKE STRIPPING YOUR GEARS.
 Job cpu time:       0 days  0 hours  1 minutes  1.0 seconds.
 Elapsed time:       0 days  0 hours  0 minutes  3.2 seconds.
 File lengths (MBytes):  RWF=     13 Int=      0 D2E=      0 Chk=      2 Scr=      1
 Normal termination of Gaussian 16 at Thu Jul 10 14:19:03 2025.
