 Entering Gaussian System, Link 0=g16
 Initial command:
 /apps/gaussian/g16c01/g16/l1.exe "/jobfs/145008065.gadi-pbs/Gau-4084111.inp" -scrdir="/jobfs/145008065.gadi-pbs/"
 Entering Link 1 = /apps/gaussian/g16c01/g16/l1.exe PID=   4084123.
  
 Copyright (c) 1988-2019, Gaussian, Inc.  All Rights Reserved.
  
 This is part of the Gaussian(R) 16 program.  It is based on
 the Gaussian(R) 09 system (copyright 2009, Gaussian, Inc.),
 the Gaussian(R) 03 system (copyright 2003, Gaussian, Inc.),
 the Gaussian(R) 98 system (copyright 1998, Gaussian, Inc.),
 the Gaussian(R) 94 system (copyright 1995, Gaussian, Inc.),
 the Gaussian 92(TM) system (copyright 1992, Gaussian, Inc.),
 the Gaussian 90(TM) system (copyright 1990, Gaussian, Inc.),
 the Gaussian 88(TM) system (copyright 1988, Gaussian, Inc.),
 the Gaussian 86(TM) system (copyright 1986, Carnegie Mellon
 University), and the Gaussian 82(TM) system (copyright 1983,
 Carnegie Mellon University). Gaussian is a federally registered
 trademark of Gaussian, Inc.
  
 This software contains proprietary and confidential information,
 including trade secrets, belonging to Gaussian, Inc.
  
 This software is provided under written license and may be
 used, copied, transmitted, or stored only in accord with that
 written license.
  
 The following legend is applicable only to US Government
 contracts under FAR:
  
                    RESTRICTED RIGHTS LEGEND
  
 Use, reproduction and disclosure by the US Government is
 subject to restrictions as set forth in subparagraphs (a)
 and (c) of the Commercial Computer Software - Restricted
 Rights clause in FAR 52.227-19.
  
 Gaussian, Inc.
 340 Quinnipiac St., Bldg. 40, Wallingford CT 06492
  
  
 ---------------------------------------------------------------
 Warning -- This program may not be used in any manner that
 competes with the business of Gaussian, Inc. or will provide
 assistance to any competitor of Gaussian, Inc.  The licensee
 of this program is prohibited from giving any competitor of
 Gaussian, Inc. access to this program.  By using this program,
 the user acknowledges that Gaussian, Inc. is engaged in the
 business of creating and licensing software in the field of
 computational chemistry and represents and warrants to the
 licensee that it is not a competitor of Gaussian, Inc. and that
 it will not use this program in any manner prohibited above.
 ---------------------------------------------------------------
  

 Cite this work as:
 Gaussian 16, Revision C.01,
 M. J. Frisch, G. W. Trucks, H. B. Schlegel, G. E. Scuseria, 
 M. A. Robb, J. R. Cheeseman, G. Scalmani, V. Barone, 
 G. A. Petersson, H. Nakatsuji, X. Li, M. Caricato, A. V. Marenich, 
 J. Bloino, B. G. Janesko, R. Gomperts, B. Mennucci, H. P. Hratchian, 
 J. V. Ortiz, A. F. Izmaylov, J. L. Sonnenberg, D. Williams-Young, 
 F. Ding, F. Lipparini, F. Egidi, J. Goings, B. Peng, A. Petrone, 
 T. Henderson, D. Ranasinghe, V. G. Zakrzewski, J. Gao, N. Rega, 
 G. Zheng, W. Liang, M. Hada, M. Ehara, K. Toyota, R. Fukuda, 
 J. Hasegawa, M. Ishida, T. Nakajima, Y. Honda, O. Kitao, H. Nakai, 
 T. Vreven, K. Throssell, J. A. Montgomery, Jr., J. E. Peralta, 
 F. Ogliaro, M. J. Bearpark, J. J. Heyd, E. N. Brothers, K. N. Kudin, 
 V. N. Staroverov, T. A. Keith, R. Kobayashi, J. Normand, 
 K. Raghavachari, A. P. Rendell, J. C. Burant, S. S. Iyengar, 
 J. Tomasi, M. Cossi, J. M. Millam, M. Klene, C. Adamo, R. Cammi, 
 J. W. Ochterski, R. L. Martin, K. Morokuma, O. Farkas, 
 J. B. Foresman, and D. J. Fox, Gaussian, Inc., Wallingford CT, 2019.
 
 ******************************************
 Gaussian 16:  ES64L-G16RevC.01  3-Jul-2019
                10-Jul-2025 
 ******************************************
 %chk=H2F2_iso1_wat_M05-2x.chk
 %mem=20GB
 %nprocshared=20
 Will use up to   20 processors via shared memory.
 ---------------------------------------
 #P M052X/6-31G* scrf(SMD,solvent=water)
 ---------------------------------------
 1/38=1,172=1/1;
 2/12=2,17=6,18=5,40=1/2;
 3/5=1,6=6,7=1,11=2,25=1,30=1,70=32201,72=1,74=-38/1,2,3;
 4//1;
 5/5=2,38=5,53=1/2;
 6/7=2,8=2,9=2,10=2,28=1/1;
 99/5=1,9=1/99;
 Leave Link    1 at Thu Jul 10 14:45:19 2025, MaxMem=  2684354560 cpu:               1.3 elap:               0.1
 (Enter /apps/gaussian/g16c01/g16/l101.exe)
 --------------------
 H2F2_iso1_wat_M05-2x
 --------------------
 Symbolic Z-matrix:
 Charge =  0 Multiplicity = 1
 C                     1.38589   0.        0.00002 
 C                     0.07076   0.        0.00005 
 H                     1.92425   0.93713  -0.00002 
 H                     1.92425  -0.93713   0.00001 
 F                    -0.69936  -1.0827   0. 
 F                    -0.69936   1.0827   -0.00004 
 
 ITRead=  0  0  0  0  0  0
 MicOpt= -1 -1 -1 -1 -1 -1
 NAtoms=      6 NQM=        6 NQMF=       0 NMMI=      0 NMMIF=      0
                NMic=       0 NMicF=      0.
                    Isotopes and Nuclear Properties:
 (Nuclear quadrupole moments (NQMom) in fm**2, nuclear magnetic moments (NMagM)
  in nuclear magnetons)

  Atom         1           2           3           4           5           6
 IAtWgt=          12          12           1           1          19          19
 AtmWgt=  12.0000000  12.0000000   1.0078250   1.0078250  18.9984033  18.9984033
 NucSpn=           0           0           1           1           1           1
 AtZEff=  -0.0000000  -0.0000000  -0.0000000  -0.0000000  -0.0000000  -0.0000000
 NQMom=    0.0000000   0.0000000   0.0000000   0.0000000   0.0000000   0.0000000
 NMagM=    0.0000000   0.0000000   2.7928460   2.7928460   2.6288670   2.6288670
 AtZNuc=   6.0000000   6.0000000   1.0000000   1.0000000   9.0000000   9.0000000
 Leave Link  101 at Thu Jul 10 14:45:20 2025, MaxMem=  2684354560 cpu:               3.6 elap:               0.2
 (Enter /apps/gaussian/g16c01/g16/l202.exe)
                          Input orientation:                          
 ---------------------------------------------------------------------
 Center     Atomic      Atomic             Coordinates (Angstroms)
 Number     Number       Type             X           Y           Z
 ---------------------------------------------------------------------
      1          6           0        1.385888    0.000000    0.000024
      2          6           0        0.070760    0.000000    0.000048
      3          1           0        1.924250    0.937132   -0.000024
      4          1           0        1.924250   -0.937133    0.000011
      5          9           0       -0.699355   -1.082701   -0.000003
      6          9           0       -0.699355    1.082701   -0.000043
 ---------------------------------------------------------------------
                    Distance matrix (angstroms):
                    1          2          3          4          5
     1  C    0.000000
     2  C    1.315128   0.000000
     3  H    1.080764   2.076931   0.000000
     4  H    1.080764   2.076931   1.874265   0.000000
     5  F    2.349570   1.328653   3.311046   2.627640   0.000000
     6  F    2.349570   1.328653   2.627640   3.311047   2.165402
                    6
     6  F    0.000000
 Stoichiometry    C2H2F2
 Framework group  C1[X(C2H2F2)]
 Deg. of freedom    12
 Full point group                 C1      NOp   1
 Largest Abelian subgroup         C1      NOp   1
 Largest concise Abelian subgroup C1      NOp   1
                         Standard orientation:                         
 ---------------------------------------------------------------------
 Center     Atomic      Atomic             Coordinates (Angstroms)
 Number     Number       Type             X           Y           Z
 ---------------------------------------------------------------------
      1          6           0       -1.385888   -0.000001    0.000024
      2          6           0       -0.070760   -0.000000    0.000048
      3          1           0       -1.924250   -0.937133   -0.000024
      4          1           0       -1.924250    0.937132    0.000011
      5          9           0        0.699355    1.082701   -0.000003
      6          9           0        0.699355   -1.082701   -0.000043
 ---------------------------------------------------------------------
 Rotational constants (GHZ):          10.9125768          10.3707828           5.3173919
 Leave Link  202 at Thu Jul 10 14:45:20 2025, MaxMem=  2684354560 cpu:               0.8 elap:               0.1
 (Enter /apps/gaussian/g16c01/g16/l301.exe)
 Standard basis: 6-31G(d) (6D, 7F)
 Ernie: Thresh=  0.10000D-02 Tol=  0.10000D-05 Strict=F.
 There are    64 symmetry adapted cartesian basis functions of A   symmetry.
 There are    64 symmetry adapted basis functions of A   symmetry.
    64 basis functions,   120 primitive gaussians,    64 cartesian basis functions
    16 alpha electrons       16 beta electrons
       nuclear repulsion energy       117.3358158015 Hartrees.
 IExCor= 3428 DFT=T Ex+Corr=M052X ExCW=0 ScaHFX=  0.560000
 ScaDFX=  0.440000  0.440000  1.000000  1.000000 ScalE2=  1.000000  1.000000
 IRadAn=      5 IRanWt=     -1 IRanGd=            0 ICorTp=0 IEmpDi=  4
 NAtoms=    6 NActive=    6 NUniq=    6 SFac= 1.00D+00 NAtFMM=   60 NAOKFM=F Big=F
 Integral buffers will be    131072 words long.
 Raffenetti 2 integral format.
 Two-electron integral symmetry is turned on.
 ------------------------------------------------------------------------------
 Polarizable Continuum Model (PCM)
 =================================
 Model                : PCM.
 Atomic radii         : SMD-Coulomb.
 Polarization charges : Total charges.
 Charge compensation  : None.
 Solution method      : On-the-fly selection.
 Cavity type          : VdW (van der Waals Surface) (Alpha=1.000).
 Cavity algorithm     : GePol (No added spheres)
                        Default sphere list used, NSphG=    6.
                        Lebedev-Laikov grids with approx.  5.0 points / Ang**2.
                        Smoothing algorithm: York/Karplus (Gamma=1.0000).
                        Polarization charges: spherical gaussians, with
                                              point-specific exponents (IZeta= 3).
                        Self-potential: point-specific (ISelfS= 7).
                        Self-field    : sphere-specific E.n sum rule (ISelfD= 2).
 Solvent              : Water, Eps=  78.355300 Eps(inf)=   1.777849
 ------------------------------------------------------------------------------
 Spheres list:
 ISph  on   Nord     Re0    Alpha      Xe            Ye            Ze
    1   C      1    1.8500  1.000     -1.385888     -0.000001      0.000024
    2   C      2    1.8500  1.000     -0.070760     -0.000000      0.000048
    3   H      3    1.2000  1.000     -1.924250     -0.937133     -0.000024
    4   H      4    1.2000  1.000     -1.924250      0.937132      0.000011
    5   F      5    1.7300  1.000      0.699355      1.082701     -0.000003
    6   F      6    1.7300  1.000      0.699355     -1.082701     -0.000043
 ------------------------------------------------------------------------------
 GePol: Number of generator spheres                  =       6
 GePol: Total number of spheres                      =       6
 GePol: Number of exposed spheres                    =       6 (100.00%)
 GePol: Number of points                             =     625
 GePol: Average weight of points                     =       0.14
 GePol: Minimum weight of points                     =   0.22D-07
 GePol: Maximum weight of points                     =    0.21501
 GePol: Number of points with low weight             =      28
 GePol: Fraction of low-weight points (<1% of avg)   =       4.48%
 GePol: Cavity surface area                          =     84.513 Ang**2
 GePol: Cavity volume                                =     62.607 Ang**3
 ------------------------------------------------------------------------------
 Atomic radii for non-electrostatic terms: SMD-CDS.
 ------------------------------------------------------------------------------
 PCM non-electrostatic energy =         0.0067511784 Hartrees.
 Nuclear repulsion after PCM non-electrostatic terms =      117.3425669799 Hartrees.
 Leave Link  301 at Thu Jul 10 14:45:20 2025, MaxMem=  2684354560 cpu:               2.3 elap:               0.1
 (Enter /apps/gaussian/g16c01/g16/l302.exe)
 NPDir=0 NMtPBC=     1 NCelOv=     1 NCel=       1 NClECP=     1 NCelD=      1
         NCelK=      1 NCelE2=     1 NClLst=     1 CellRange=     0.0.
 One-electron integrals computed using PRISM.
 One-electron integral symmetry used in STVInt
 NBasis=    64 RedAO= T EigKep=  3.33D-03  NBF=    64
 NBsUse=    64 1.00D-06 EigRej= -1.00D+00 NBFU=    64
 Precomputing XC quadrature grid using
 IXCGrd= 4 IRadAn=           5 IRanWt=          -1 IRanGd=           0 AccXCQ= 0.00D+00.
 Generated NRdTot=       0 NPtTot=           0 NUsed=           0 NTot=          32
 NSgBfM=    64    64    64    64    64 MxSgAt=     6 MxSgA2=     6.
 Leave Link  302 at Thu Jul 10 14:45:20 2025, MaxMem=  2684354560 cpu:               3.1 elap:               0.2
 (Enter /apps/gaussian/g16c01/g16/l303.exe)
 DipDrv:  MaxL=1.
 Leave Link  303 at Thu Jul 10 14:45:20 2025, MaxMem=  2684354560 cpu:               0.8 elap:               0.1
 (Enter /apps/gaussian/g16c01/g16/l401.exe)
 ExpMin= 1.61D-01 ExpMax= 7.00D+03 ExpMxC= 1.05D+03 IAcc=3 IRadAn=         5 AccDes= 0.00D+00
 Harris functional with IExCor= 1009 and IRadAn=       5 diagonalized for initial guess.
 HarFok:  IExCor= 1009 AccDes= 0.00D+00 IRadAn=         5 IDoV= 1 UseB2=F ITyADJ=14
 ICtDFT=  3500011 ScaDFX=  1.000000  1.000000  1.000000  1.000000
 FoFCou: FMM=F IPFlag=           0 FMFlag=      100000 FMFlg1=           0
         NFxFlg=           0 DoJE=T BraDBF=F KetDBF=T FulRan=T
         wScrn=  0.000000 ICntrl=       500 IOpCl=  0 I1Cent=   200000004 NGrid=           0
         NMat0=    1 NMatS0=      1 NMatT0=    0 NMatD0=    1 NMtDS0=    0 NMtDT0=    0
 Petite list used in FoFCou.
 Harris En= -276.815890743756    
 JPrj=0 DoOrth=F DoCkMO=F.
 Leave Link  401 at Thu Jul 10 14:45:20 2025, MaxMem=  2684354560 cpu:               3.6 elap:               0.2
 (Enter /apps/gaussian/g16c01/g16/l502.exe)
 Keep R1 ints in memory in canonical form, NReq=19962716.
 FoFCou: FMM=F IPFlag=           0 FMFlag=           0 FMFlg1=           0
         NFxFlg=           0 DoJE=F BraDBF=F KetDBF=F FulRan=T
         wScrn=  0.000000 ICntrl=       600 IOpCl=  0 I1Cent=           0 NGrid=           0
         NMat0=    1 NMatS0=   2080 NMatT0=    0 NMatD0=    1 NMtDS0=    0 NMtDT0=    0
 Symmetry not used in FoFCou.
 Two-electron integral symmetry not used.
 Closed shell SCF:
 Using DIIS extrapolation, IDIIS=  1040.
 NGot=  2684354560 LenX=  2682179902 LenY=  2682175365
 Requested convergence on RMS density matrix=1.00D-08 within 128 cycles.
 Requested convergence on MAX density matrix=1.00D-06.
 Requested convergence on             energy=1.00D-06.
 No special actions if energy rises.

 Cycle   1  Pass 1  IDiag  1:
 Inv3:  Mode=1 IEnd=     1171875.
 Iteration    1 A*A^-1 deviation from unit magnitude is 3.55D-15 for    618.
 Iteration    1 A*A^-1 deviation from orthogonality  is 1.11D-15 for    482    377.
 Iteration    1 A^-1*A deviation from unit magnitude is 3.77D-15 for    618.
 Iteration    1 A^-1*A deviation from orthogonality  is 2.13D-10 for    502    454.
 Iteration    2 A*A^-1 deviation from unit magnitude is 1.55D-15 for    127.
 Iteration    2 A*A^-1 deviation from orthogonality  is 1.25D-15 for    597      8.
 Iteration    2 A^-1*A deviation from unit magnitude is 8.88D-16 for    236.
 Iteration    2 A^-1*A deviation from orthogonality  is 6.45D-16 for    561     38.
 E= -276.917047548254    
 DIIS: error= 4.30D-02 at cycle   1 NSaved=   1.
 NSaved= 1 IEnMin= 1 EnMin= -276.917047548254     IErMin= 1 ErrMin= 4.30D-02
 ErrMax= 4.30D-02  0.00D+00 EMaxC= 1.00D-01 BMatC= 1.20D-01 BMatP= 1.20D-01
 IDIUse=3 WtCom= 5.70D-01 WtEn= 4.30D-01
 Coeff-Com:  0.100D+01
 Coeff-En:   0.100D+01
 Coeff:      0.100D+01
 Gap=     0.331 Goal=   None    Shift=    0.000
 GapD=    0.331 DampG=1.000 DampE=0.500 DampFc=0.5000 IDamp=-1.
 Damping current iteration by 5.00D-01
 RMSDP=7.63D-03 MaxDP=1.98D-01              OVMax= 2.85D-01

 Cycle   2  Pass 1  IDiag  1:
 E= -276.971257693228     Delta-E=       -0.054210144974 Rises=F Damp=T
 DIIS: error= 8.32D-03 at cycle   2 NSaved=   2.
 NSaved= 2 IEnMin= 2 EnMin= -276.971257693228     IErMin= 2 ErrMin= 8.32D-03
 ErrMax= 8.32D-03  0.00D+00 EMaxC= 1.00D-01 BMatC= 7.27D-03 BMatP= 1.20D-01
 IDIUse=3 WtCom= 9.17D-01 WtEn= 8.32D-02
 Coeff-Com: -0.423D-01 0.104D+01
 Coeff-En:   0.000D+00 0.100D+01
 Coeff:     -0.388D-01 0.104D+01
 Gap=     0.390 Goal=   None    Shift=    0.000
 RMSDP=1.34D-03 MaxDP=2.18D-02 DE=-5.42D-02 OVMax= 1.41D-01

 Cycle   3  Pass 1  IDiag  1:
 E= -277.024023199002     Delta-E=       -0.052765505774 Rises=F Damp=F
 DIIS: error= 4.56D-03 at cycle   3 NSaved=   3.
 NSaved= 3 IEnMin= 3 EnMin= -277.024023199002     IErMin= 3 ErrMin= 4.56D-03
 ErrMax= 4.56D-03  0.00D+00 EMaxC= 1.00D-01 BMatC= 9.89D-04 BMatP= 7.27D-03
 IDIUse=3 WtCom= 9.54D-01 WtEn= 4.56D-02
 Coeff-Com: -0.389D-01 0.228D+00 0.811D+00
 Coeff-En:   0.000D+00 0.000D+00 0.100D+01
 Coeff:     -0.371D-01 0.217D+00 0.820D+00
 Gap=     0.404 Goal=   None    Shift=    0.000
 RMSDP=5.76D-04 MaxDP=1.41D-02 DE=-5.28D-02 OVMax= 2.11D-02

 Cycle   4  Pass 1  IDiag  1:
 E= -277.024918172472     Delta-E=       -0.000894973470 Rises=F Damp=F
 DIIS: error= 1.39D-03 at cycle   4 NSaved=   4.
 NSaved= 4 IEnMin= 4 EnMin= -277.024918172472     IErMin= 4 ErrMin= 1.39D-03
 ErrMax= 1.39D-03  0.00D+00 EMaxC= 1.00D-01 BMatC= 1.42D-04 BMatP= 9.89D-04
 IDIUse=3 WtCom= 9.86D-01 WtEn= 1.39D-02
 Coeff-Com: -0.165D-02-0.810D-02 0.267D+00 0.743D+00
 Coeff-En:   0.000D+00 0.000D+00 0.000D+00 0.100D+01
 Coeff:     -0.162D-02-0.799D-02 0.263D+00 0.746D+00
 Gap=     0.406 Goal=   None    Shift=    0.000
 RMSDP=1.49D-04 MaxDP=2.60D-03 DE=-8.95D-04 OVMax= 2.36D-03

 Cycle   5  Pass 1  IDiag  1:
 E= -277.025042537226     Delta-E=       -0.000124364754 Rises=F Damp=F
 DIIS: error= 1.97D-04 at cycle   5 NSaved=   5.
 NSaved= 5 IEnMin= 5 EnMin= -277.025042537226     IErMin= 5 ErrMin= 1.97D-04
 ErrMax= 1.97D-04  0.00D+00 EMaxC= 1.00D-01 BMatC= 1.74D-06 BMatP= 1.42D-04
 IDIUse=3 WtCom= 9.98D-01 WtEn= 1.97D-03
 Coeff-Com:  0.320D-02-0.895D-02-0.490D-01-0.145D+00 0.120D+01
 Coeff-En:   0.000D+00 0.000D+00 0.000D+00 0.000D+00 0.100D+01
 Coeff:      0.320D-02-0.893D-02-0.489D-01-0.145D+00 0.120D+01
 Gap=     0.406 Goal=   None    Shift=    0.000
 RMSDP=4.48D-05 MaxDP=7.16D-04 DE=-1.24D-04 OVMax= 1.05D-03

 Cycle   6  Pass 1  IDiag  1:
 E= -277.025045777329     Delta-E=       -0.000003240103 Rises=F Damp=F
 DIIS: error= 5.68D-05 at cycle   6 NSaved=   6.
 NSaved= 6 IEnMin= 6 EnMin= -277.025045777329     IErMin= 6 ErrMin= 5.68D-05
 ErrMax= 5.68D-05  0.00D+00 EMaxC= 1.00D-01 BMatC= 1.93D-07 BMatP= 1.74D-06
 IDIUse=1 WtCom= 1.00D+00 WtEn= 0.00D+00
 Coeff-Com:  0.115D-02-0.230D-02-0.177D-01-0.623D-01 0.322D+00 0.759D+00
 Coeff:      0.115D-02-0.230D-02-0.177D-01-0.623D-01 0.322D+00 0.759D+00
 Gap=     0.406 Goal=   None    Shift=    0.000
 RMSDP=6.63D-06 MaxDP=8.90D-05 DE=-3.24D-06 OVMax= 1.93D-04

 Cycle   7  Pass 1  IDiag  1:
 E= -277.025045927074     Delta-E=       -0.000000149745 Rises=F Damp=F
 DIIS: error= 2.85D-05 at cycle   7 NSaved=   7.
 NSaved= 7 IEnMin= 7 EnMin= -277.025045927074     IErMin= 7 ErrMin= 2.85D-05
 ErrMax= 2.85D-05  0.00D+00 EMaxC= 1.00D-01 BMatC= 5.40D-08 BMatP= 1.93D-07
 IDIUse=1 WtCom= 1.00D+00 WtEn= 0.00D+00
 Coeff-Com:  0.157D-03-0.604D-04-0.160D-02-0.134D-01-0.300D-01 0.339D+00
 Coeff-Com:  0.706D+00
 Coeff:      0.157D-03-0.604D-04-0.160D-02-0.134D-01-0.300D-01 0.339D+00
 Coeff:      0.706D+00
 Gap=     0.406 Goal=   None    Shift=    0.000
 RMSDP=3.82D-06 MaxDP=5.65D-05 DE=-1.50D-07 OVMax= 5.20D-05

 Cycle   8  Pass 1  IDiag  1:
 E= -277.025045968279     Delta-E=       -0.000000041205 Rises=F Damp=F
 DIIS: error= 3.83D-06 at cycle   8 NSaved=   8.
 NSaved= 8 IEnMin= 8 EnMin= -277.025045968279     IErMin= 8 ErrMin= 3.83D-06
 ErrMax= 3.83D-06  0.00D+00 EMaxC= 1.00D-01 BMatC= 1.35D-09 BMatP= 5.40D-08
 IDIUse=1 WtCom= 1.00D+00 WtEn= 0.00D+00
 Coeff-Com: -0.256D-06-0.179D-04 0.142D-02 0.386D-02-0.146D-01-0.718D-01
 Coeff-Com: -0.103D-01 0.109D+01
 Coeff:     -0.256D-06-0.179D-04 0.142D-02 0.386D-02-0.146D-01-0.718D-01
 Coeff:     -0.103D-01 0.109D+01
 Gap=     0.406 Goal=   None    Shift=    0.000
 RMSDP=8.32D-07 MaxDP=1.24D-05 DE=-4.12D-08 OVMax= 1.51D-05

 Cycle   9  Pass 1  IDiag  1:
 E= -277.025045969668     Delta-E=       -0.000000001390 Rises=F Damp=F
 DIIS: error= 3.47D-07 at cycle   9 NSaved=   9.
 NSaved= 9 IEnMin= 9 EnMin= -277.025045969668     IErMin= 9 ErrMin= 3.47D-07
 ErrMax= 3.47D-07  0.00D+00 EMaxC= 1.00D-01 BMatC= 1.19D-11 BMatP= 1.35D-09
 IDIUse=1 WtCom= 1.00D+00 WtEn= 0.00D+00
 Coeff-Com:  0.250D-05-0.680D-05 0.491D-04 0.235D-03 0.288D-03-0.709D-02
 Coeff-Com: -0.138D-01-0.463D-02 0.102D+01
 Coeff:      0.250D-05-0.680D-05 0.491D-04 0.235D-03 0.288D-03-0.709D-02
 Coeff:     -0.138D-01-0.463D-02 0.102D+01
 Gap=     0.406 Goal=   None    Shift=    0.000
 RMSDP=1.03D-07 MaxDP=1.44D-06 DE=-1.39D-09 OVMax= 1.68D-06

 Cycle  10  Pass 1  IDiag  1:
 E= -277.025045969684     Delta-E=       -0.000000000015 Rises=F Damp=F
 DIIS: error= 5.64D-08 at cycle  10 NSaved=  10.
 NSaved=10 IEnMin=10 EnMin= -277.025045969684     IErMin=10 ErrMin= 5.64D-08
 ErrMax= 5.64D-08  0.00D+00 EMaxC= 1.00D-01 BMatC= 1.97D-13 BMatP= 1.19D-11
 IDIUse=1 WtCom= 1.00D+00 WtEn= 0.00D+00
 Coeff-Com:  0.691D-06-0.148D-05-0.356D-04-0.971D-04 0.390D-03 0.224D-02
 Coeff-Com:  0.219D-03-0.298D-01-0.190D-01 0.105D+01
 Coeff:      0.691D-06-0.148D-05-0.356D-04-0.971D-04 0.390D-03 0.224D-02
 Coeff:      0.219D-03-0.298D-01-0.190D-01 0.105D+01
 Gap=     0.406 Goal=   None    Shift=    0.000
 RMSDP=1.75D-08 MaxDP=2.69D-07 DE=-1.53D-11 OVMax= 2.18D-07

 Cycle  11  Pass 1  IDiag  1:
 E= -277.025045969684     Delta-E=       -0.000000000001 Rises=F Damp=F
 DIIS: error= 6.09D-09 at cycle  11 NSaved=  11.
 NSaved=11 IEnMin=11 EnMin= -277.025045969684     IErMin=11 ErrMin= 6.09D-09
 ErrMax= 6.09D-09  0.00D+00 EMaxC= 1.00D-01 BMatC= 3.24D-15 BMatP= 1.97D-13
 IDIUse=1 WtCom= 1.00D+00 WtEn= 0.00D+00
 Coeff-Com: -0.175D-06 0.397D-06 0.282D-05 0.547D-05-0.525D-04-0.248D-05
 Coeff-Com:  0.316D-03 0.299D-02-0.253D-01-0.719D-01 0.109D+01
 Coeff:     -0.175D-06 0.397D-06 0.282D-05 0.547D-05-0.525D-04-0.248D-05
 Coeff:      0.316D-03 0.299D-02-0.253D-01-0.719D-01 0.109D+01
 Gap=     0.406 Goal=   None    Shift=    0.000
 RMSDP=2.04D-09 MaxDP=2.24D-08 DE=-5.68D-13 OVMax= 3.54D-08

 Error on total polarization charges =  0.01132
 SCF Done:  E(RM052X) =  -277.025045970     A.U. after   11 cycles
            NFock= 11  Conv=0.20D-08     -V/T= 2.0075
 KE= 2.749643472308D+02 PE=-8.897432713751D+02 EE= 2.204113111947D+02
 SMD-CDS (non-electrostatic) energy       (kcal/mol) =       4.24
 (included in total energy above)
 Leave Link  502 at Thu Jul 10 14:45:22 2025, MaxMem=  2684354560 cpu:              38.5 elap:               2.0
 (Enter /apps/gaussian/g16c01/g16/l601.exe)
 Copying SCF densities to generalized density rwf, IOpCl= 0 IROHF=0.

 **********************************************************************

            Population analysis using the SCF Density.

 **********************************************************************

 Orbital symmetries:
       Occupied  (A) (A) (A) (A) (A) (A) (A) (A) (A) (A) (A) (A)
                 (A) (A) (A) (A)
       Virtual   (A) (A) (A) (A) (A) (A) (A) (A) (A) (A) (A) (A)
                 (A) (A) (A) (A) (A) (A) (A) (A) (A) (A) (A) (A)
                 (A) (A) (A) (A) (A) (A) (A) (A) (A) (A) (A) (A)
                 (A) (A) (A) (A) (A) (A) (A) (A) (A) (A) (A) (A)
 The electronic state is 1-A.
 Alpha  occ. eigenvalues --  -25.33927 -25.33926 -10.75061 -10.57269  -1.42046
 Alpha  occ. eigenvalues --   -1.35515  -0.88822  -0.73456  -0.66689  -0.61838
 Alpha  occ. eigenvalues --   -0.60773  -0.53987  -0.52546  -0.51183  -0.48453
 Alpha  occ. eigenvalues --   -0.32329
 Alpha virt. eigenvalues --    0.08312   0.18490   0.20248   0.23404   0.34120
 Alpha virt. eigenvalues --    0.38110   0.56393   0.58354   0.60907   0.65620
 Alpha virt. eigenvalues --    0.68840   0.72476   0.90910   1.00937   1.02244
 Alpha virt. eigenvalues --    1.10360   1.17543   1.24644   1.31047   1.32921
 Alpha virt. eigenvalues --    1.42896   1.45983   1.47375   1.47925   1.66984
 Alpha virt. eigenvalues --    1.75927   1.78163   1.86350   1.86438   1.91328
 Alpha virt. eigenvalues --    2.02905   2.04196   2.07454   2.08254   2.13741
 Alpha virt. eigenvalues --    2.22521   2.31446   2.49813   2.59099   2.65616
 Alpha virt. eigenvalues --    2.79829   3.05376   3.13556   3.19231   4.12739
 Alpha virt. eigenvalues --    4.27643   4.69409   5.02016
          Condensed to atoms (all electrons):
               1          2          3          4          5          6
     1  C    5.353607   0.595064   0.360801   0.360801  -0.063269  -0.063269
     2  C    0.595064   4.187376  -0.017330  -0.017330   0.324612   0.324612
     3  H    0.360801  -0.017330   0.437698  -0.017975   0.001575  -0.000389
     4  H    0.360801  -0.017330  -0.017975   0.437698  -0.000389   0.001575
     5  F   -0.063269   0.324612   0.001575  -0.000389   9.047171  -0.044447
     6  F   -0.063269   0.324612  -0.000389   0.001575  -0.044447   9.047171
 Mulliken charges:
               1
     1  C   -0.543734
     2  C    0.602996
     3  H    0.235621
     4  H    0.235621
     5  F   -0.265252
     6  F   -0.265252
 Sum of Mulliken charges =  -0.00000
 Mulliken charges with hydrogens summed into heavy atoms:
               1
     1  C   -0.072492
     2  C    0.602996
     5  F   -0.265252
     6  F   -0.265252
 Electronic spatial extent (au):  <R**2>=            227.5779
 Charge=             -0.0000 electrons
 Dipole moment (field-independent basis, Debye):
    X=             -1.6053    Y=             -0.0000    Z=              0.0000  Tot=              1.6053
 Quadrupole moment (field-independent basis, Debye-Ang):
   XX=            -19.4914   YY=            -21.4504   ZZ=            -22.0193
   XY=              0.0000   XZ=              0.0002   YZ=              0.0000
 Traceless Quadrupole moment (field-independent basis, Debye-Ang):
   XX=              1.4956   YY=             -0.4634   ZZ=             -1.0323
   XY=              0.0000   XZ=              0.0002   YZ=              0.0000
 Octapole moment (field-independent basis, Debye-Ang**2):
  XXX=              5.5592  YYY=              0.0000  ZZZ=             -0.0006  XYY=             -0.0657
  XXY=              0.0000  XXZ=             -0.0005  XZZ=              5.7089  YZZ=              0.0000
  YYZ=             -0.0002  XYZ=             -0.0001
 Hexadecapole moment (field-independent basis, Debye-Ang**3):
 XXXX=           -123.2808 YYYY=            -87.1864 ZZZZ=            -18.0488 XXXY=             -0.0000
 XXXZ=              0.0016 YYYX=             -0.0000 YYYZ=             -0.0006 ZZZX=              0.0012
 ZZZY=             -0.0007 XXYY=            -31.5482 XXZZ=            -27.8065 YYZZ=            -17.8100
 XXYZ=             -0.0001 YYXZ=              0.0004 ZZXY=             -0.0000
 N-N= 1.173425669799D+02 E-N=-8.897432712292D+02  KE= 2.749643472308D+02
 No NMR shielding tensors so no spin-rotation constants.
 Leave Link  601 at Thu Jul 10 14:45:23 2025, MaxMem=  2684354560 cpu:               1.9 elap:               0.1
 (Enter /apps/gaussian/g16c01/g16/l9999.exe)
 Unable to Open any file for archive entry.
 1\1\GINC-GADI-CPU-CLX-0270\SP\RM052X\6-31G(d)\C2H2F2\YR9300\10-Jul-202
 5\0\\#P M052X/6-31G* scrf(SMD,solvent=water)\\H2F2_iso1_wat_M05-2x\\0,
 1\C,0,1.385888,0.,0.000024\C,0,0.07076,0.,0.000048\H,0,1.92425,0.93713
 2,-0.000024\H,0,1.92425,-0.937133,0.000011\F,0,-0.699355,-1.082701,-0.
 000003\F,0,-0.699355,1.082701,-0.000043\\Version=ES64L-G16RevC.01\Stat
 e=1-A\HF=-277.025046\RMSD=2.040e-09\Dipole=0.6315648,0.,0.0000138\Quad
 rupole=1.1119557,-0.3445013,-0.7674545,-0.0000004,-0.0001429,-0.000008
 2\PG=C01 [X(C2H2F2)]\\@
 The archive entry for this job was punched.


 REVOLUTIONS HAVE NEVER LIGHTENED THE BURDEN OF TYRANNY:
 THEY HAVE MERELY SHIFTED IT TO OTHER SHOULDERS.
                                   -- G. B. SHAW (1903)
 Job cpu time:       0 days  0 hours  0 minutes 57.2 seconds.
 Elapsed time:       0 days  0 hours  0 minutes  3.1 seconds.
 File lengths (MBytes):  RWF=     13 Int=      0 D2E=      0 Chk=      2 Scr=      1
 Normal termination of Gaussian 16 at Thu Jul 10 14:45:23 2025.
