 Entering Gaussian System, Link 0=g16
 Initial command:
 /apps/gaussian/g16c01/g16/l1.exe "/jobfs/145006957.gadi-pbs/Gau-2925119.inp" -scrdir="/jobfs/145006957.gadi-pbs/"
 Entering Link 1 = /apps/gaussian/g16c01/g16/l1.exe PID=   2925120.
  
 Copyright (c) 1988-2019, Gaussian, Inc.  All Rights Reserved.
  
 This is part of the Gaussian(R) 16 program.  It is based on
 the Gaussian(R) 09 system (copyright 2009, Gaussian, Inc.),
 the Gaussian(R) 03 system (copyright 2003, Gaussian, Inc.),
 the Gaussian(R) 98 system (copyright 1998, Gaussian, Inc.),
 the Gaussian(R) 94 system (copyright 1995, Gaussian, Inc.),
 the Gaussian 92(TM) system (copyright 1992, Gaussian, Inc.),
 the Gaussian 90(TM) system (copyright 1990, Gaussian, Inc.),
 the Gaussian 88(TM) system (copyright 1988, Gaussian, Inc.),
 the Gaussian 86(TM) system (copyright 1986, Carnegie Mellon
 University), and the Gaussian 82(TM) system (copyright 1983,
 Carnegie Mellon University). Gaussian is a federally registered
 trademark of Gaussian, Inc.
  
 This software contains proprietary and confidential information,
 including trade secrets, belonging to Gaussian, Inc.
  
 This software is provided under written license and may be
 used, copied, transmitted, or stored only in accord with that
 written license.
  
 The following legend is applicable only to US Government
 contracts under FAR:
  
                    RESTRICTED RIGHTS LEGEND
  
 Use, reproduction and disclosure by the US Government is
 subject to restrictions as set forth in subparagraphs (a)
 and (c) of the Commercial Computer Software - Restricted
 Rights clause in FAR 52.227-19.
  
 Gaussian, Inc.
 340 Quinnipiac St., Bldg. 40, Wallingford CT 06492
  
  
 ---------------------------------------------------------------
 Warning -- This program may not be used in any manner that
 competes with the business of Gaussian, Inc. or will provide
 assistance to any competitor of Gaussian, Inc.  The licensee
 of this program is prohibited from giving any competitor of
 Gaussian, Inc. access to this program.  By using this program,
 the user acknowledges that Gaussian, Inc. is engaged in the
 business of creating and licensing software in the field of
 computational chemistry and represents and warrants to the
 licensee that it is not a competitor of Gaussian, Inc. and that
 it will not use this program in any manner prohibited above.
 ---------------------------------------------------------------
  

 Cite this work as:
 Gaussian 16, Revision C.01,
 M. J. Frisch, G. W. Trucks, H. B. Schlegel, G. E. Scuseria, 
 M. A. Robb, J. R. Cheeseman, G. Scalmani, V. Barone, 
 G. A. Petersson, H. Nakatsuji, X. Li, M. Caricato, A. V. Marenich, 
 J. Bloino, B. G. Janesko, R. Gomperts, B. Mennucci, H. P. Hratchian, 
 J. V. Ortiz, A. F. Izmaylov, J. L. Sonnenberg, D. Williams-Young, 
 F. Ding, F. Lipparini, F. Egidi, J. Goings, B. Peng, A. Petrone, 
 T. Henderson, D. Ranasinghe, V. G. Zakrzewski, J. Gao, N. Rega, 
 G. Zheng, W. Liang, M. Hada, M. Ehara, K. Toyota, R. Fukuda, 
 J. Hasegawa, M. Ishida, T. Nakajima, Y. Honda, O. Kitao, H. Nakai, 
 T. Vreven, K. Throssell, J. A. Montgomery, Jr., J. E. Peralta, 
 F. Ogliaro, M. J. Bearpark, J. J. Heyd, E. N. Brothers, K. N. Kudin, 
 V. N. Staroverov, T. A. Keith, R. Kobayashi, J. Normand, 
 K. Raghavachari, A. P. Rendell, J. C. Burant, S. S. Iyengar, 
 J. Tomasi, M. Cossi, J. M. Millam, M. Klene, C. Adamo, R. Cammi, 
 J. W. Ochterski, R. L. Martin, K. Morokuma, O. Farkas, 
 J. B. Foresman, and D. J. Fox, Gaussian, Inc., Wallingford CT, 2019.
 
 ******************************************
 Gaussian 16:  ES64L-G16RevC.01  3-Jul-2019
                10-Jul-2025 
 ******************************************
 %chk=H1F3_oct_vaccum_M05-2x.chk
 %mem=20GB
 %nprocshared=20
 Will use up to   20 processors via shared memory.
 ---------------
 #P M052X/6-31G*
 ---------------
 1/38=1,172=1/1;
 2/12=2,17=6,18=5,40=1/2;
 3/5=1,6=6,7=1,11=2,25=1,30=1,74=-38/1,2,3;
 4//1;
 5/5=2,38=5/2;
 6/7=2,8=2,9=2,10=2,28=1/1;
 99/5=1,9=1/99;
 Leave Link    1 at Thu Jul 10 14:15:30 2025, MaxMem=  2684354560 cpu:               0.8 elap:               0.1
 (Enter /apps/gaussian/g16c01/g16/l101.exe)
 --------------------------
 H1F3_oct_vaccum_M05-2x.gjf
 --------------------------
 Symbolic Z-matrix:
 Charge =  0 Multiplicity = 1
 C                     0.7451   -0.64751   0.00001 
 C                    -0.42847  -0.04263   0.00002 
 H                     0.87212  -1.71978   0.00001 
 F                     1.88249   0.07916  -0.00003 
 F                    -0.60942   1.26746  -0.00001 
 F                    -1.58106  -0.69544   0.00002 
 
 ITRead=  0  0  0  0  0  0
 MicOpt= -1 -1 -1 -1 -1 -1
 NAtoms=      6 NQM=        6 NQMF=       0 NMMI=      0 NMMIF=      0
                NMic=       0 NMicF=      0.
                    Isotopes and Nuclear Properties:
 (Nuclear quadrupole moments (NQMom) in fm**2, nuclear magnetic moments (NMagM)
  in nuclear magnetons)

  Atom         1           2           3           4           5           6
 IAtWgt=          12          12           1          19          19          19
 AtmWgt=  12.0000000  12.0000000   1.0078250  18.9984033  18.9984033  18.9984033
 NucSpn=           0           0           1           1           1           1
 AtZEff=  -0.0000000  -0.0000000  -0.0000000  -0.0000000  -0.0000000  -0.0000000
 NQMom=    0.0000000   0.0000000   0.0000000   0.0000000   0.0000000   0.0000000
 NMagM=    0.0000000   0.0000000   2.7928460   2.6288670   2.6288670   2.6288670
 AtZNuc=   6.0000000   6.0000000   1.0000000   9.0000000   9.0000000   9.0000000
 Leave Link  101 at Thu Jul 10 14:15:30 2025, MaxMem=  2684354560 cpu:               3.8 elap:               0.4
 (Enter /apps/gaussian/g16c01/g16/l202.exe)
                          Input orientation:                          
 ---------------------------------------------------------------------
 Center     Atomic      Atomic             Coordinates (Angstroms)
 Number     Number       Type             X           Y           Z
 ---------------------------------------------------------------------
      1          6           0        0.745098   -0.647513    0.000011
      2          6           0       -0.428468   -0.042632    0.000021
      3          1           0        0.872123   -1.719777    0.000013
      4          9           0        1.882491    0.079156   -0.000032
      5          9           0       -0.609423    1.267461   -0.000013
      6          9           0       -1.581057   -0.695435    0.000022
 ---------------------------------------------------------------------
                    Distance matrix (angstroms):
                    1          2          3          4          5
     1  C    0.000000
     2  C    1.320280   0.000000
     3  H    1.079762   2.122346   0.000000
     4  F    1.349708   2.314166   2.063251   0.000000
     5  F    2.345603   1.322531   3.334452   2.760743   0.000000
     6  F    2.326649   1.324618   2.658452   3.549106   2.190213
                    6
     6  F    0.000000
 Stoichiometry    C2HF3
 Framework group  C1[X(C2HF3)]
 Deg. of freedom    12
 Full point group                 C1      NOp   1
 Largest Abelian subgroup         C1      NOp   1
 Largest concise Abelian subgroup C1      NOp   1
                         Standard orientation:                         
 ---------------------------------------------------------------------
 Center     Atomic      Atomic             Coordinates (Angstroms)
 Number     Number       Type             X           Y           Z
 ---------------------------------------------------------------------
      1          6           0        0.745098   -0.647513    0.000011
      2          6           0       -0.428468   -0.042632    0.000021
      3          1           0        0.872123   -1.719777    0.000013
      4          9           0        1.882491    0.079157   -0.000032
      5          9           0       -0.609423    1.267461   -0.000013
      6          9           0       -1.581057   -0.695435    0.000022
 ---------------------------------------------------------------------
 Rotational constants (GHZ):          10.5847678           3.8421484           2.8189149
 Leave Link  202 at Thu Jul 10 14:15:30 2025, MaxMem=  2684354560 cpu:               1.7 elap:               0.2
 (Enter /apps/gaussian/g16c01/g16/l301.exe)
 Standard basis: 6-31G(d) (6D, 7F)
 Ernie: Thresh=  0.10000D-02 Tol=  0.10000D-05 Strict=F.
 There are    77 symmetry adapted cartesian basis functions of A   symmetry.
 There are    77 symmetry adapted basis functions of A   symmetry.
    77 basis functions,   144 primitive gaussians,    77 cartesian basis functions
    20 alpha electrons       20 beta electrons
       nuclear repulsion energy       172.7309876990 Hartrees.
 IExCor= 3428 DFT=T Ex+Corr=M052X ExCW=0 ScaHFX=  0.560000
 ScaDFX=  0.440000  0.440000  1.000000  1.000000 ScalE2=  1.000000  1.000000
 IRadAn=      5 IRanWt=     -1 IRanGd=            0 ICorTp=0 IEmpDi=  4
 NAtoms=    6 NActive=    6 NUniq=    6 SFac= 1.00D+00 NAtFMM=   60 NAOKFM=F Big=F
 Integral buffers will be    131072 words long.
 Raffenetti 2 integral format.
 Two-electron integral symmetry is turned on.
 Leave Link  301 at Thu Jul 10 14:15:30 2025, MaxMem=  2684354560 cpu:               1.5 elap:               0.1
 (Enter /apps/gaussian/g16c01/g16/l302.exe)
 NPDir=0 NMtPBC=     1 NCelOv=     1 NCel=       1 NClECP=     1 NCelD=      1
         NCelK=      1 NCelE2=     1 NClLst=     1 CellRange=     0.0.
 One-electron integrals computed using PRISM.
 One-electron integral symmetry used in STVInt
 NBasis=    77 RedAO= T EigKep=  2.55D-03  NBF=    77
 NBsUse=    77 1.00D-06 EigRej= -1.00D+00 NBFU=    77
 Precomputing XC quadrature grid using
 IXCGrd= 4 IRadAn=           5 IRanWt=          -1 IRanGd=           0 AccXCQ= 0.00D+00.
 Generated NRdTot=       0 NPtTot=           0 NUsed=           0 NTot=          32
 NSgBfM=    77    77    77    77    77 MxSgAt=     6 MxSgA2=     6.
 Leave Link  302 at Thu Jul 10 14:15:31 2025, MaxMem=  2684354560 cpu:               4.7 elap:               0.3
 (Enter /apps/gaussian/g16c01/g16/l303.exe)
 DipDrv:  MaxL=1.
 Leave Link  303 at Thu Jul 10 14:15:31 2025, MaxMem=  2684354560 cpu:               1.7 elap:               0.1
 (Enter /apps/gaussian/g16c01/g16/l401.exe)
 ExpMin= 1.61D-01 ExpMax= 7.00D+03 ExpMxC= 1.05D+03 IAcc=3 IRadAn=         5 AccDes= 0.00D+00
 Harris functional with IExCor= 1009 and IRadAn=       5 diagonalized for initial guess.
 HarFok:  IExCor= 1009 AccDes= 0.00D+00 IRadAn=         5 IDoV= 1 UseB2=F ITyADJ=14
 ICtDFT=  3500011 ScaDFX=  1.000000  1.000000  1.000000  1.000000
 FoFCou: FMM=F IPFlag=           0 FMFlag=      100000 FMFlg1=           0
         NFxFlg=           0 DoJE=T BraDBF=F KetDBF=T FulRan=T
         wScrn=  0.000000 ICntrl=       500 IOpCl=  0 I1Cent=   200000004 NGrid=           0
         NMat0=    1 NMatS0=      1 NMatT0=    0 NMatD0=    1 NMtDS0=    0 NMtDT0=    0
 Petite list used in FoFCou.
 Harris En= -375.914284997606    
 JPrj=0 DoOrth=F DoCkMO=F.
 Leave Link  401 at Thu Jul 10 14:15:32 2025, MaxMem=  2684354560 cpu:               9.8 elap:               1.3
 (Enter /apps/gaussian/g16c01/g16/l502.exe)
 Keep R1 ints in memory in canonical form, NReq=22558587.
 FoFCou: FMM=F IPFlag=           0 FMFlag=           0 FMFlg1=           0
         NFxFlg=           0 DoJE=F BraDBF=F KetDBF=F FulRan=T
         wScrn=  0.000000 ICntrl=       600 IOpCl=  0 I1Cent=           0 NGrid=           0
         NMat0=    1 NMatS0=   3003 NMatT0=    0 NMatD0=    1 NMtDS0=    0 NMtDT0=    0
 Symmetry not used in FoFCou.
 Two-electron integral symmetry not used.
 Closed shell SCF:
 Using DIIS extrapolation, IDIIS=  1040.
 NGot=  2684354560 LenX=  2679829617 LenY=  2679823247
 Requested convergence on RMS density matrix=1.00D-08 within 128 cycles.
 Requested convergence on MAX density matrix=1.00D-06.
 Requested convergence on             energy=1.00D-06.
 No special actions if energy rises.
 Integral accuracy reduced to 1.0D-05 until final iterations.

 Cycle   1  Pass 0  IDiag  1:
 E= -376.192261167691    
 DIIS: error= 1.79D-02 at cycle   1 NSaved=   1.
 NSaved= 1 IEnMin= 1 EnMin= -376.192261167691     IErMin= 1 ErrMin= 1.79D-02
 ErrMax= 1.79D-02  0.00D+00 EMaxC= 1.00D-01 BMatC= 6.80D-02 BMatP= 6.80D-02
 IDIUse=3 WtCom= 8.21D-01 WtEn= 1.79D-01
 Coeff-Com:  0.100D+01
 Coeff-En:   0.100D+01
 Coeff:      0.100D+01
 Gap=     0.372 Goal=   None    Shift=    0.000
 GapD=    0.372 DampG=1.000 DampE=0.500 DampFc=0.5000 IDamp=-1.
 Damping current iteration by 5.00D-01
 RMSDP=4.13D-03 MaxDP=1.15D-01              OVMax= 1.57D-01

 Cycle   2  Pass 0  IDiag  1:
 E= -376.214318136894     Delta-E=       -0.022056969204 Rises=F Damp=T
 DIIS: error= 1.02D-02 at cycle   2 NSaved=   2.
 NSaved= 2 IEnMin= 2 EnMin= -376.214318136894     IErMin= 2 ErrMin= 1.02D-02
 ErrMax= 1.02D-02  0.00D+00 EMaxC= 1.00D-01 BMatC= 8.25D-03 BMatP= 6.80D-02
 IDIUse=3 WtCom= 8.98D-01 WtEn= 1.02D-01
 Coeff-Com: -0.152D+00 0.115D+01
 Coeff-En:   0.000D+00 0.100D+01
 Coeff:     -0.137D+00 0.114D+01
 Gap=     0.393 Goal=   None    Shift=    0.000
 RMSDP=1.15D-03 MaxDP=2.48D-02 DE=-2.21D-02 OVMax= 9.63D-02

 Cycle   3  Pass 0  IDiag  1:
 E= -376.235275865120     Delta-E=       -0.020957728226 Rises=F Damp=F
 DIIS: error= 4.60D-03 at cycle   3 NSaved=   3.
 NSaved= 3 IEnMin= 3 EnMin= -376.235275865120     IErMin= 3 ErrMin= 4.60D-03
 ErrMax= 4.60D-03  0.00D+00 EMaxC= 1.00D-01 BMatC= 2.04D-03 BMatP= 8.25D-03
 IDIUse=3 WtCom= 9.54D-01 WtEn= 4.60D-02
 Coeff-Com: -0.147D+00 0.394D+00 0.753D+00
 Coeff-En:   0.000D+00 0.000D+00 0.100D+01
 Coeff:     -0.140D+00 0.376D+00 0.764D+00
 Gap=     0.397 Goal=   None    Shift=    0.000
 RMSDP=5.82D-04 MaxDP=1.70D-02 DE=-2.10D-02 OVMax= 2.53D-02

 Cycle   4  Pass 0  IDiag  1:
 E= -376.237031098917     Delta-E=       -0.001755233797 Rises=F Damp=F
 DIIS: error= 8.84D-04 at cycle   4 NSaved=   4.
 NSaved= 4 IEnMin= 4 EnMin= -376.237031098917     IErMin= 4 ErrMin= 8.84D-04
 ErrMax= 8.84D-04  0.00D+00 EMaxC= 1.00D-01 BMatC= 1.13D-04 BMatP= 2.04D-03
 IDIUse=3 WtCom= 9.91D-01 WtEn= 8.84D-03
 Coeff-Com: -0.295D-01 0.592D-01 0.254D+00 0.716D+00
 Coeff-En:   0.000D+00 0.000D+00 0.000D+00 0.100D+01
 Coeff:     -0.292D-01 0.586D-01 0.252D+00 0.719D+00
 Gap=     0.398 Goal=   None    Shift=    0.000
 RMSDP=1.31D-04 MaxDP=3.02D-03 DE=-1.76D-03 OVMax= 3.80D-03

 Cycle   5  Pass 0  IDiag  1:
 E= -376.237128696436     Delta-E=       -0.000097597518 Rises=F Damp=F
 DIIS: error= 1.78D-04 at cycle   5 NSaved=   5.
 NSaved= 5 IEnMin= 5 EnMin= -376.237128696436     IErMin= 5 ErrMin= 1.78D-04
 ErrMax= 1.78D-04  0.00D+00 EMaxC= 1.00D-01 BMatC= 4.00D-06 BMatP= 1.13D-04
 IDIUse=3 WtCom= 9.98D-01 WtEn= 1.78D-03
 Coeff-Com: -0.485D-02 0.658D-02 0.626D-01 0.244D+00 0.692D+00
 Coeff-En:   0.000D+00 0.000D+00 0.000D+00 0.000D+00 0.100D+01
 Coeff:     -0.484D-02 0.657D-02 0.625D-01 0.243D+00 0.693D+00
 Gap=     0.398 Goal=   None    Shift=    0.000
 RMSDP=1.98D-05 MaxDP=3.45D-04 DE=-9.76D-05 OVMax= 4.16D-04

 Cycle   6  Pass 0  IDiag  1:
 E= -376.237131129638     Delta-E=       -0.000002433202 Rises=F Damp=F
 DIIS: error= 8.03D-05 at cycle   6 NSaved=   6.
 NSaved= 6 IEnMin= 6 EnMin= -376.237131129638     IErMin= 6 ErrMin= 8.03D-05
 ErrMax= 8.03D-05  0.00D+00 EMaxC= 1.00D-01 BMatC= 5.42D-07 BMatP= 4.00D-06
 IDIUse=1 WtCom= 1.00D+00 WtEn= 0.00D+00
 Coeff-Com:  0.216D-02-0.582D-02-0.882D-02-0.491D-03 0.261D+00 0.752D+00
 Coeff:      0.216D-02-0.582D-02-0.882D-02-0.491D-03 0.261D+00 0.752D+00
 Gap=     0.398 Goal=   None    Shift=    0.000
 RMSDP=9.02D-06 MaxDP=1.24D-04 DE=-2.43D-06 OVMax= 1.62D-04

 Initial convergence to 1.0D-05 achieved.  Increase integral accuracy.
 Cycle   7  Pass 1  IDiag  1:
 E= -376.237162131188     Delta-E=       -0.000031001550 Rises=F Damp=F
 DIIS: error= 3.86D-05 at cycle   1 NSaved=   1.
 NSaved= 1 IEnMin= 1 EnMin= -376.237162131188     IErMin= 1 ErrMin= 3.86D-05
 ErrMax= 3.86D-05  0.00D+00 EMaxC= 1.00D-01 BMatC= 1.01D-07 BMatP= 1.01D-07
 IDIUse=1 WtCom= 1.00D+00 WtEn= 0.00D+00
 Coeff-Com:  0.100D+01
 Coeff:      0.100D+01
 Gap=     0.398 Goal=   None    Shift=    0.000
 RMSDP=9.02D-06 MaxDP=1.24D-04 DE=-3.10D-05 OVMax= 1.28D-04

 Cycle   8  Pass 1  IDiag  1:
 E= -376.237162228346     Delta-E=       -0.000000097158 Rises=F Damp=F
 DIIS: error= 1.69D-05 at cycle   2 NSaved=   2.
 NSaved= 2 IEnMin= 2 EnMin= -376.237162228346     IErMin= 2 ErrMin= 1.69D-05
 ErrMax= 1.69D-05  0.00D+00 EMaxC= 1.00D-01 BMatC= 2.26D-08 BMatP= 1.01D-07
 IDIUse=1 WtCom= 1.00D+00 WtEn= 0.00D+00
 Coeff-Com:  0.255D+00 0.745D+00
 Coeff:      0.255D+00 0.745D+00
 Gap=     0.398 Goal=   None    Shift=    0.000
 RMSDP=2.16D-06 MaxDP=3.73D-05 DE=-9.72D-08 OVMax= 4.79D-05

 Cycle   9  Pass 1  IDiag  1:
 E= -376.237162241116     Delta-E=       -0.000000012771 Rises=F Damp=F
 DIIS: error= 6.74D-06 at cycle   3 NSaved=   3.
 NSaved= 3 IEnMin= 3 EnMin= -376.237162241116     IErMin= 3 ErrMin= 6.74D-06
 ErrMax= 6.74D-06  0.00D+00 EMaxC= 1.00D-01 BMatC= 6.80D-09 BMatP= 2.26D-08
 IDIUse=1 WtCom= 1.00D+00 WtEn= 0.00D+00
 Coeff-Com: -0.439D-01 0.327D+00 0.717D+00
 Coeff:     -0.439D-01 0.327D+00 0.717D+00
 Gap=     0.398 Goal=   None    Shift=    0.000
 RMSDP=9.08D-07 MaxDP=1.36D-05 DE=-1.28D-08 OVMax= 1.22D-05

 Cycle  10  Pass 1  IDiag  1:
 E= -376.237162245582     Delta-E=       -0.000000004466 Rises=F Damp=F
 DIIS: error= 1.46D-06 at cycle   4 NSaved=   4.
 NSaved= 4 IEnMin= 4 EnMin= -376.237162245582     IErMin= 4 ErrMin= 1.46D-06
 ErrMax= 1.46D-06  0.00D+00 EMaxC= 1.00D-01 BMatC= 2.09D-10 BMatP= 6.80D-09
 IDIUse=1 WtCom= 1.00D+00 WtEn= 0.00D+00
 Coeff-Com: -0.242D-01 0.623D-01 0.218D+00 0.744D+00
 Coeff:     -0.242D-01 0.623D-01 0.218D+00 0.744D+00
 Gap=     0.398 Goal=   None    Shift=    0.000
 RMSDP=2.25D-07 MaxDP=4.69D-06 DE=-4.47D-09 OVMax= 6.30D-06

 Cycle  11  Pass 1  IDiag  1:
 E= -376.237162245800     Delta-E=       -0.000000000218 Rises=F Damp=F
 DIIS: error= 3.78D-07 at cycle   5 NSaved=   5.
 NSaved= 5 IEnMin= 5 EnMin= -376.237162245800     IErMin= 5 ErrMin= 3.78D-07
 ErrMax= 3.78D-07  0.00D+00 EMaxC= 1.00D-01 BMatC= 1.57D-11 BMatP= 2.09D-10
 IDIUse=1 WtCom= 1.00D+00 WtEn= 0.00D+00
 Coeff-Com: -0.173D-03-0.172D-01-0.379D-01 0.112D+00 0.943D+00
 Coeff:     -0.173D-03-0.172D-01-0.379D-01 0.112D+00 0.943D+00
 Gap=     0.398 Goal=   None    Shift=    0.000
 RMSDP=8.76D-08 MaxDP=1.19D-06 DE=-2.18D-10 OVMax= 1.84D-06

 Cycle  12  Pass 1  IDiag  1:
 E= -376.237162245819     Delta-E=       -0.000000000019 Rises=F Damp=F
 DIIS: error= 2.30D-07 at cycle   6 NSaved=   6.
 NSaved= 6 IEnMin= 6 EnMin= -376.237162245819     IErMin= 6 ErrMin= 2.30D-07
 ErrMax= 2.30D-07  0.00D+00 EMaxC= 1.00D-01 BMatC= 5.04D-12 BMatP= 1.57D-11
 IDIUse=1 WtCom= 1.00D+00 WtEn= 0.00D+00
 Coeff-Com:  0.235D-02-0.148D-01-0.418D-01-0.108D-01 0.463D+00 0.602D+00
 Coeff:      0.235D-02-0.148D-01-0.418D-01-0.108D-01 0.463D+00 0.602D+00
 Gap=     0.398 Goal=   None    Shift=    0.000
 RMSDP=2.16D-08 MaxDP=4.68D-07 DE=-1.88D-11 OVMax= 5.61D-07

 Cycle  13  Pass 1  IDiag  1:
 E= -376.237162245822     Delta-E=       -0.000000000003 Rises=F Damp=F
 DIIS: error= 2.72D-08 at cycle   7 NSaved=   7.
 NSaved= 7 IEnMin= 7 EnMin= -376.237162245822     IErMin= 7 ErrMin= 2.72D-08
 ErrMax= 2.72D-08  0.00D+00 EMaxC= 1.00D-01 BMatC= 7.47D-14 BMatP= 5.04D-12
 IDIUse=1 WtCom= 1.00D+00 WtEn= 0.00D+00
 Coeff-Com:  0.129D-03 0.548D-03-0.716D-03-0.115D-01-0.407D-01 0.563D-01
 Coeff-Com:  0.996D+00
 Coeff:      0.129D-03 0.548D-03-0.716D-03-0.115D-01-0.407D-01 0.563D-01
 Coeff:      0.996D+00
 Gap=     0.398 Goal=   None    Shift=    0.000
 RMSDP=6.30D-09 MaxDP=7.66D-08 DE=-2.84D-12 OVMax= 1.48D-07

 SCF Done:  E(RM052X) =  -376.237162246     A.U. after   13 cycles
            NFock= 13  Conv=0.63D-08     -V/T= 2.0073
 KE= 3.735208183631D+02 PE=-1.237161194051D+03 EE= 3.146722257429D+02
 Leave Link  502 at Thu Jul 10 14:15:34 2025, MaxMem=  2684354560 cpu:              28.0 elap:               1.5
 (Enter /apps/gaussian/g16c01/g16/l601.exe)
 Copying SCF densities to generalized density rwf, IOpCl= 0 IROHF=0.

 **********************************************************************

            Population analysis using the SCF Density.

 **********************************************************************

 Orbital symmetries:
       Occupied  (A) (A) (A) (A) (A) (A) (A) (A) (A) (A) (A) (A)
                 (A) (A) (A) (A) (A) (A) (A) (A)
       Virtual   (A) (A) (A) (A) (A) (A) (A) (A) (A) (A) (A) (A)
                 (A) (A) (A) (A) (A) (A) (A) (A) (A) (A) (A) (A)
                 (A) (A) (A) (A) (A) (A) (A) (A) (A) (A) (A) (A)
                 (A) (A) (A) (A) (A) (A) (A) (A) (A) (A) (A) (A)
                 (A) (A) (A) (A) (A) (A) (A) (A) (A)
 The electronic state is 1-A.
 Alpha  occ. eigenvalues --  -25.35532 -25.35295 -25.32395 -10.76281 -10.67646
 Alpha  occ. eigenvalues --   -1.43440  -1.37316  -1.36218  -0.90609  -0.74973
 Alpha  occ. eigenvalues --   -0.68673  -0.66892  -0.63588  -0.60244  -0.56081
 Alpha  occ. eigenvalues --   -0.55611  -0.55264  -0.53080  -0.48219  -0.32336
 Alpha virt. eigenvalues --    0.07498   0.12479   0.18176   0.21604   0.38192
 Alpha virt. eigenvalues --    0.42235   0.55528   0.55623   0.60598   0.61337
 Alpha virt. eigenvalues --    0.65509   0.66214   0.84844   0.94783   1.04182
 Alpha virt. eigenvalues --    1.15360   1.17806   1.21969   1.27405   1.30957
 Alpha virt. eigenvalues --    1.34806   1.40470   1.41221   1.44949   1.46586
 Alpha virt. eigenvalues --    1.47676   1.59828   1.61886   1.74029   1.79808
 Alpha virt. eigenvalues --    1.82668   1.86984   1.89473   1.89756   1.91150
 Alpha virt. eigenvalues --    1.99067   2.00445   2.03334   2.06110   2.11887
 Alpha virt. eigenvalues --    2.13830   2.26841   2.39366   2.39387   2.55842
 Alpha virt. eigenvalues --    2.60834   2.70892   2.82816   3.03343   3.06986
 Alpha virt. eigenvalues --    3.16970   3.29954   4.06403   4.24118   4.31062
 Alpha virt. eigenvalues --    4.82900   5.32915
          Condensed to atoms (all electrons):
               1          2          3          4          5          6
     1  C    4.968101   0.473721   0.374872   0.266341  -0.056854  -0.050643
     2  C    0.473721   4.449945  -0.061415  -0.032690   0.321859   0.309788
     3  H    0.374872  -0.061415   0.507544  -0.029786   0.001387   0.001466
     4  F    0.266341  -0.032690  -0.029786   9.072163   0.000266   0.000269
     5  F   -0.056854   0.321859   0.001387   0.000266   9.014733  -0.039098
     6  F   -0.050643   0.309788   0.001466   0.000269  -0.039098   9.028551
 Mulliken charges:
               1
     1  C    0.024463
     2  C    0.538792
     3  H    0.205933
     4  F   -0.276562
     5  F   -0.242293
     6  F   -0.250333
 Sum of Mulliken charges =  -0.00000
 Mulliken charges with hydrogens summed into heavy atoms:
               1
     1  C    0.230396
     2  C    0.538792
     4  F   -0.276562
     5  F   -0.242293
     6  F   -0.250333
 Electronic spatial extent (au):  <R**2>=            369.3473
 Charge=             -0.0000 electrons
 Dipole moment (field-independent basis, Debye):
    X=             -0.0726    Y=             -1.3462    Z=              0.0000  Tot=              1.3482
 Quadrupole moment (field-independent basis, Debye-Ang):
   XX=            -28.2008   YY=            -24.0421   ZZ=            -25.3246
   XY=             -1.4844   XZ=              0.0000   YZ=              0.0000
 Traceless Quadrupole moment (field-independent basis, Debye-Ang):
   XX=             -2.3450   YY=              1.8137   ZZ=              0.5313
   XY=             -1.4844   XZ=              0.0000   YZ=              0.0000
 Octapole moment (field-independent basis, Debye-Ang**2):
  XXX=             -5.1430  YYY=              0.5745  ZZZ=             -0.0003  XYY=              2.1243
  XXY=              1.2734  XXZ=             -0.0000  XZZ=             -1.4336  YZZ=              2.3710
  YYZ=             -0.0001  XYZ=             -0.0000
 Hexadecapole moment (field-independent basis, Debye-Ang**3):
 XXXX=           -233.3924 YYYY=            -93.1838 ZZZZ=            -18.9128 XXXY=              1.8632
 XXXZ=              0.0014 YYYX=              0.4249 YYYZ=              0.0006 ZZZX=              0.0011
 ZZZY=              0.0007 XXYY=            -52.3347 XXZZ=            -40.0101 YYZZ=            -20.3426
 XXYZ=              0.0002 YYXZ=              0.0004 ZZXY=              1.4629
 N-N= 1.727309876990D+02 E-N=-1.237161192188D+03  KE= 3.735208183631D+02
 No NMR shielding tensors so no spin-rotation constants.
 Leave Link  601 at Thu Jul 10 14:15:34 2025, MaxMem=  2684354560 cpu:               6.5 elap:               0.4
 (Enter /apps/gaussian/g16c01/g16/l9999.exe)
 Unable to Open any file for archive entry.
 1\1\GINC-GADI-CPU-CLX-1890\SP\RM052X\6-31G(d)\C2H1F3\YR9300\10-Jul-202
 5\0\\#P M052X/6-31G*\\H1F3_oct_vaccum_M05-2x.gjf\\0,1\C,0,0.745098,-0.
 647513,0.000011\C,0,-0.428468,-0.042632,0.000021\H,0,0.872123,-1.71977
 7,0.000013\F,0,1.882491,0.079156,-0.000032\F,0,-0.609423,1.267461,-0.0
 00013\F,0,-1.581057,-0.695435,0.000022\\Version=ES64L-G16RevC.01\State
 =1-A\HF=-376.2371622\RMSD=6.301e-09\Dipole=-0.0285664,-0.5296394,0.000
 0159\Quadrupole=-1.7434197,1.3484296,0.3949901,-1.1036087,0.00003,0.00
 00103\PG=C01 [X(C2H1F3)]\\@
 The archive entry for this job was punched.


 SOME PEOPLE TRY TO PULL THE WOOL OVER YOUR EYES
 USING THE WRONG YARN.
 Job cpu time:       0 days  0 hours  0 minutes 59.5 seconds.
 Elapsed time:       0 days  0 hours  0 minutes  4.6 seconds.
 File lengths (MBytes):  RWF=      6 Int=      0 D2E=      0 Chk=      1 Scr=      1
 Normal termination of Gaussian 16 at Thu Jul 10 14:15:34 2025.
