 Entering Gaussian System, Link 0=g16
 Initial command:
 /apps/gaussian/g16c01/g16/l1.exe "/jobfs/145008216.gadi-pbs/Gau-4003066.inp" -scrdir="/jobfs/145008216.gadi-pbs/"
 Entering Link 1 = /apps/gaussian/g16c01/g16/l1.exe PID=   4003075.
  
 Copyright (c) 1988-2019, Gaussian, Inc.  All Rights Reserved.
  
 This is part of the Gaussian(R) 16 program.  It is based on
 the Gaussian(R) 09 system (copyright 2009, Gaussian, Inc.),
 the Gaussian(R) 03 system (copyright 2003, Gaussian, Inc.),
 the Gaussian(R) 98 system (copyright 1998, Gaussian, Inc.),
 the Gaussian(R) 94 system (copyright 1995, Gaussian, Inc.),
 the Gaussian 92(TM) system (copyright 1992, Gaussian, Inc.),
 the Gaussian 90(TM) system (copyright 1990, Gaussian, Inc.),
 the Gaussian 88(TM) system (copyright 1988, Gaussian, Inc.),
 the Gaussian 86(TM) system (copyright 1986, Carnegie Mellon
 University), and the Gaussian 82(TM) system (copyright 1983,
 Carnegie Mellon University). Gaussian is a federally registered
 trademark of Gaussian, Inc.
  
 This software contains proprietary and confidential information,
 including trade secrets, belonging to Gaussian, Inc.
  
 This software is provided under written license and may be
 used, copied, transmitted, or stored only in accord with that
 written license.
  
 The following legend is applicable only to US Government
 contracts under FAR:
  
                    RESTRICTED RIGHTS LEGEND
  
 Use, reproduction and disclosure by the US Government is
 subject to restrictions as set forth in subparagraphs (a)
 and (c) of the Commercial Computer Software - Restricted
 Rights clause in FAR 52.227-19.
  
 Gaussian, Inc.
 340 Quinnipiac St., Bldg. 40, Wallingford CT 06492
  
  
 ---------------------------------------------------------------
 Warning -- This program may not be used in any manner that
 competes with the business of Gaussian, Inc. or will provide
 assistance to any competitor of Gaussian, Inc.  The licensee
 of this program is prohibited from giving any competitor of
 Gaussian, Inc. access to this program.  By using this program,
 the user acknowledges that Gaussian, Inc. is engaged in the
 business of creating and licensing software in the field of
 computational chemistry and represents and warrants to the
 licensee that it is not a competitor of Gaussian, Inc. and that
 it will not use this program in any manner prohibited above.
 ---------------------------------------------------------------
  

 Cite this work as:
 Gaussian 16, Revision C.01,
 M. J. Frisch, G. W. Trucks, H. B. Schlegel, G. E. Scuseria, 
 M. A. Robb, J. R. Cheeseman, G. Scalmani, V. Barone, 
 G. A. Petersson, H. Nakatsuji, X. Li, M. Caricato, A. V. Marenich, 
 J. Bloino, B. G. Janesko, R. Gomperts, B. Mennucci, H. P. Hratchian, 
 J. V. Ortiz, A. F. Izmaylov, J. L. Sonnenberg, D. Williams-Young, 
 F. Ding, F. Lipparini, F. Egidi, J. Goings, B. Peng, A. Petrone, 
 T. Henderson, D. Ranasinghe, V. G. Zakrzewski, J. Gao, N. Rega, 
 G. Zheng, W. Liang, M. Hada, M. Ehara, K. Toyota, R. Fukuda, 
 J. Hasegawa, M. Ishida, T. Nakajima, Y. Honda, O. Kitao, H. Nakai, 
 T. Vreven, K. Throssell, J. A. Montgomery, Jr., J. E. Peralta, 
 F. Ogliaro, M. J. Bearpark, J. J. Heyd, E. N. Brothers, K. N. Kudin, 
 V. N. Staroverov, T. A. Keith, R. Kobayashi, J. Normand, 
 K. Raghavachari, A. P. Rendell, J. C. Burant, S. S. Iyengar, 
 J. Tomasi, M. Cossi, J. M. Millam, M. Klene, C. Adamo, R. Cammi, 
 J. W. Ochterski, R. L. Martin, K. Morokuma, O. Farkas, 
 J. B. Foresman, and D. J. Fox, Gaussian, Inc., Wallingford CT, 2019.
 
 ******************************************
 Gaussian 16:  ES64L-G16RevC.01  3-Jul-2019
                10-Jul-2025 
 ******************************************
 %chk=H1F3_wat_M05-2x.chk
 %mem=20GB
 %nprocshared=20
 Will use up to   20 processors via shared memory.
 -------------------------------------------
 #P M052X/6-31G* scrf(SMD,solvent=n-octanol)
 -------------------------------------------
 1/38=1,172=1/1;
 2/12=2,17=6,18=5,40=1/2;
 3/5=1,6=6,7=1,11=2,25=1,30=1,70=32201,72=25,74=-38/1,2,3;
 4//1;
 5/5=2,38=5,53=25/2;
 6/7=2,8=2,9=2,10=2,28=1/1;
 99/5=1,9=1/99;
 Leave Link    1 at Thu Jul 10 14:46:24 2025, MaxMem=  2684354560 cpu:               1.7 elap:               0.1
 (Enter /apps/gaussian/g16c01/g16/l101.exe)
 ---------------
 H1F3_wat_M05-2x
 ---------------
 Symbolic Z-matrix:
 Charge =  0 Multiplicity = 1
 C                     0.74381  -0.65111  -0.00001 
 C                    -0.42846  -0.04409  -0.00001 
 H                     0.87254  -1.72259   0.00002 
 F                     1.88041   0.07882  -0.00002 
 F                    -0.60409   1.26733  -0.00001 
 F                    -1.58351  -0.69128   0.00004 
 
 ITRead=  0  0  0  0  0  0
 MicOpt= -1 -1 -1 -1 -1 -1
 NAtoms=      6 NQM=        6 NQMF=       0 NMMI=      0 NMMIF=      0
                NMic=       0 NMicF=      0.
                    Isotopes and Nuclear Properties:
 (Nuclear quadrupole moments (NQMom) in fm**2, nuclear magnetic moments (NMagM)
  in nuclear magnetons)

  Atom         1           2           3           4           5           6
 IAtWgt=          12          12           1          19          19          19
 AtmWgt=  12.0000000  12.0000000   1.0078250  18.9984033  18.9984033  18.9984033
 NucSpn=           0           0           1           1           1           1
 AtZEff=  -0.0000000  -0.0000000  -0.0000000  -0.0000000  -0.0000000  -0.0000000
 NQMom=    0.0000000   0.0000000   0.0000000   0.0000000   0.0000000   0.0000000
 NMagM=    0.0000000   0.0000000   2.7928460   2.6288670   2.6288670   2.6288670
 AtZNuc=   6.0000000   6.0000000   1.0000000   9.0000000   9.0000000   9.0000000
 Leave Link  101 at Thu Jul 10 14:46:24 2025, MaxMem=  2684354560 cpu:               3.7 elap:               0.2
 (Enter /apps/gaussian/g16c01/g16/l202.exe)
                          Input orientation:                          
 ---------------------------------------------------------------------
 Center     Atomic      Atomic             Coordinates (Angstroms)
 Number     Number       Type             X           Y           Z
 ---------------------------------------------------------------------
      1          6           0        0.743807   -0.651108   -0.000012
      2          6           0       -0.428463   -0.044090   -0.000012
      3          1           0        0.872538   -1.722585    0.000016
      4          9           0        1.880413    0.078815   -0.000016
      5          9           0       -0.604086    1.267327   -0.000010
      6          9           0       -1.583505   -0.691279    0.000040
 ---------------------------------------------------------------------
                    Distance matrix (angstroms):
                    1          2          3          4          5
     1  C    0.000000
     2  C    1.320109   0.000000
     3  H    1.079182   2.123664   0.000000
     4  F    1.350800   2.312145   2.064184   0.000000
     5  F    2.344613   1.323124   3.334665   2.754142   0.000000
     6  F    2.327659   1.324000   2.663783   3.548489   2.189840
                    6
     6  F    0.000000
 Stoichiometry    C2HF3
 Framework group  C1[X(C2HF3)]
 Deg. of freedom    12
 Full point group                 C1      NOp   1
 Largest Abelian subgroup         C1      NOp   1
 Largest concise Abelian subgroup C1      NOp   1
                         Standard orientation:                         
 ---------------------------------------------------------------------
 Center     Atomic      Atomic             Coordinates (Angstroms)
 Number     Number       Type             X           Y           Z
 ---------------------------------------------------------------------
      1          6           0        0.743807   -0.651108   -0.000012
      2          6           0       -0.428463   -0.044090   -0.000012
      3          1           0        0.872538   -1.722585    0.000016
      4          9           0        1.880413    0.078815   -0.000016
      5          9           0       -0.604086    1.267327   -0.000010
      6          9           0       -1.583505   -0.691279    0.000040
 ---------------------------------------------------------------------
 Rotational constants (GHZ):          10.5959357           3.8464334           2.8220135
 Leave Link  202 at Thu Jul 10 14:46:24 2025, MaxMem=  2684354560 cpu:               1.0 elap:               0.1
 (Enter /apps/gaussian/g16c01/g16/l301.exe)
 Standard basis: 6-31G(d) (6D, 7F)
 Ernie: Thresh=  0.10000D-02 Tol=  0.10000D-05 Strict=F.
 There are    77 symmetry adapted cartesian basis functions of A   symmetry.
 There are    77 symmetry adapted basis functions of A   symmetry.
    77 basis functions,   144 primitive gaussians,    77 cartesian basis functions
    20 alpha electrons       20 beta electrons
       nuclear repulsion energy       172.7653073141 Hartrees.
 IExCor= 3428 DFT=T Ex+Corr=M052X ExCW=0 ScaHFX=  0.560000
 ScaDFX=  0.440000  0.440000  1.000000  1.000000 ScalE2=  1.000000  1.000000
 IRadAn=      5 IRanWt=     -1 IRanGd=            0 ICorTp=0 IEmpDi=  4
 NAtoms=    6 NActive=    6 NUniq=    6 SFac= 1.00D+00 NAtFMM=   60 NAOKFM=F Big=F
 Integral buffers will be    131072 words long.
 Raffenetti 2 integral format.
 Two-electron integral symmetry is turned on.
 ------------------------------------------------------------------------------
 Polarizable Continuum Model (PCM)
 =================================
 Model                : PCM.
 Atomic radii         : SMD-Coulomb.
 Polarization charges : Total charges.
 Charge compensation  : None.
 Solution method      : On-the-fly selection.
 Cavity type          : VdW (van der Waals Surface) (Alpha=1.000).
 Cavity algorithm     : GePol (No added spheres)
                        Default sphere list used, NSphG=    6.
                        Lebedev-Laikov grids with approx.  5.0 points / Ang**2.
                        Smoothing algorithm: York/Karplus (Gamma=1.0000).
                        Polarization charges: spherical gaussians, with
                                              point-specific exponents (IZeta= 3).
                        Self-potential: point-specific (ISelfS= 7).
                        Self-field    : sphere-specific E.n sum rule (ISelfD= 2).
 Solvent              : n-Octanol, Eps=   9.862900 Eps(inf)=   2.043470
 ------------------------------------------------------------------------------
 Spheres list:
 ISph  on   Nord     Re0    Alpha      Xe            Ye            Ze
    1   C      1    1.8500  1.000      0.743807     -0.651108     -0.000012
    2   C      2    1.8500  1.000     -0.428463     -0.044090     -0.000012
    3   H      3    1.2000  1.000      0.872538     -1.722585      0.000016
    4   F      4    1.7300  1.000      1.880413      0.078815     -0.000016
    5   F      5    1.7300  1.000     -0.604086      1.267327     -0.000010
    6   F      6    1.7300  1.000     -1.583505     -0.691279      0.000040
 ------------------------------------------------------------------------------
 GePol: Number of generator spheres                  =       6
 GePol: Total number of spheres                      =       6
 GePol: Number of exposed spheres                    =       6 (100.00%)
 GePol: Number of points                             =     649
 GePol: Average weight of points                     =       0.15
 GePol: Minimum weight of points                     =   0.24D-09
 GePol: Maximum weight of points                     =    0.21501
 GePol: Number of points with low weight             =      32
 GePol: Fraction of low-weight points (<1% of avg)   =       4.93%
 GePol: Cavity surface area                          =     94.627 Ang**2
 GePol: Cavity volume                                =     72.034 Ang**3
 ------------------------------------------------------------------------------
 Atomic radii for non-electrostatic terms: SMD-CDS.
 ------------------------------------------------------------------------------
 PCM non-electrostatic energy =         0.0036998646 Hartrees.
 Nuclear repulsion after PCM non-electrostatic terms =      172.7690071787 Hartrees.
 Leave Link  301 at Thu Jul 10 14:46:25 2025, MaxMem=  2684354560 cpu:               5.4 elap:               0.5
 (Enter /apps/gaussian/g16c01/g16/l302.exe)
 NPDir=0 NMtPBC=     1 NCelOv=     1 NCel=       1 NClECP=     1 NCelD=      1
         NCelK=      1 NCelE2=     1 NClLst=     1 CellRange=     0.0.
 One-electron integrals computed using PRISM.
 One-electron integral symmetry used in STVInt
 NBasis=    77 RedAO= T EigKep=  2.55D-03  NBF=    77
 NBsUse=    77 1.00D-06 EigRej= -1.00D+00 NBFU=    77
 Precomputing XC quadrature grid using
 IXCGrd= 4 IRadAn=           5 IRanWt=          -1 IRanGd=           0 AccXCQ= 0.00D+00.
 Generated NRdTot=       0 NPtTot=           0 NUsed=           0 NTot=          32
 NSgBfM=    77    77    77    77    77 MxSgAt=     6 MxSgA2=     6.
 Leave Link  302 at Thu Jul 10 14:46:26 2025, MaxMem=  2684354560 cpu:              14.5 elap:               1.2
 (Enter /apps/gaussian/g16c01/g16/l303.exe)
 DipDrv:  MaxL=1.
 Leave Link  303 at Thu Jul 10 14:46:26 2025, MaxMem=  2684354560 cpu:               4.5 elap:               0.3
 (Enter /apps/gaussian/g16c01/g16/l401.exe)
 ExpMin= 1.61D-01 ExpMax= 7.00D+03 ExpMxC= 1.05D+03 IAcc=3 IRadAn=         5 AccDes= 0.00D+00
 Harris functional with IExCor= 1009 and IRadAn=       5 diagonalized for initial guess.
 HarFok:  IExCor= 1009 AccDes= 0.00D+00 IRadAn=         5 IDoV= 1 UseB2=F ITyADJ=14
 ICtDFT=  3500011 ScaDFX=  1.000000  1.000000  1.000000  1.000000
 FoFCou: FMM=F IPFlag=           0 FMFlag=      100000 FMFlg1=           0
         NFxFlg=           0 DoJE=T BraDBF=F KetDBF=T FulRan=T
         wScrn=  0.000000 ICntrl=       500 IOpCl=  0 I1Cent=   200000004 NGrid=           0
         NMat0=    1 NMatS0=      1 NMatT0=    0 NMatD0=    1 NMtDS0=    0 NMtDT0=    0
 Petite list used in FoFCou.
 Harris En= -375.910603183499    
 JPrj=0 DoOrth=F DoCkMO=F.
 Leave Link  401 at Thu Jul 10 14:46:27 2025, MaxMem=  2684354560 cpu:               3.2 elap:               0.2
 (Enter /apps/gaussian/g16c01/g16/l502.exe)
 Keep R1 ints in memory in canonical form, NReq=22558587.
 FoFCou: FMM=F IPFlag=           0 FMFlag=           0 FMFlg1=           0
         NFxFlg=           0 DoJE=F BraDBF=F KetDBF=F FulRan=T
         wScrn=  0.000000 ICntrl=       600 IOpCl=  0 I1Cent=           0 NGrid=           0
         NMat0=    1 NMatS0=   3003 NMatT0=    0 NMatD0=    1 NMtDS0=    0 NMtDT0=    0
 Symmetry not used in FoFCou.
 Two-electron integral symmetry not used.
 Closed shell SCF:
 Using DIIS extrapolation, IDIIS=  1040.
 NGot=  2684354560 LenX=  2679829617 LenY=  2679823247
 Requested convergence on RMS density matrix=1.00D-08 within 128 cycles.
 Requested convergence on MAX density matrix=1.00D-06.
 Requested convergence on             energy=1.00D-06.
 No special actions if energy rises.

 Cycle   1  Pass 1  IDiag  1:
 Inv3:  Mode=1 IEnd=     1263603.
 Iteration    1 A*A^-1 deviation from unit magnitude is 2.44D-15 for    382.
 Iteration    1 A*A^-1 deviation from orthogonality  is 1.32D-15 for    628     36.
 Iteration    1 A^-1*A deviation from unit magnitude is 2.00D-15 for    342.
 Iteration    1 A^-1*A deviation from orthogonality  is 1.01D-15 for    544     78.
 E= -376.192835791558    
 DIIS: error= 1.81D-02 at cycle   1 NSaved=   1.
 NSaved= 1 IEnMin= 1 EnMin= -376.192835791558     IErMin= 1 ErrMin= 1.81D-02
 ErrMax= 1.81D-02  0.00D+00 EMaxC= 1.00D-01 BMatC= 6.68D-02 BMatP= 6.68D-02
 IDIUse=3 WtCom= 8.19D-01 WtEn= 1.81D-01
 Coeff-Com:  0.100D+01
 Coeff-En:   0.100D+01
 Coeff:      0.100D+01
 Gap=     0.376 Goal=   None    Shift=    0.000
 GapD=    0.376 DampG=1.000 DampE=0.500 DampFc=0.5000 IDamp=-1.
 Damping current iteration by 5.00D-01
 RMSDP=3.94D-03 MaxDP=1.13D-01              OVMax= 1.50D-01

 Cycle   2  Pass 1  IDiag  1:
 E= -376.215135647257     Delta-E=       -0.022299855699 Rises=F Damp=T
 DIIS: error= 1.04D-02 at cycle   2 NSaved=   2.
 NSaved= 2 IEnMin= 2 EnMin= -376.215135647257     IErMin= 2 ErrMin= 1.04D-02
 ErrMax= 1.04D-02  0.00D+00 EMaxC= 1.00D-01 BMatC= 8.16D-03 BMatP= 6.68D-02
 IDIUse=3 WtCom= 8.96D-01 WtEn= 1.04D-01
 Coeff-Com: -0.187D+00 0.119D+01
 Coeff-En:   0.000D+00 0.100D+01
 Coeff:     -0.167D+00 0.117D+01
 Gap=     0.396 Goal=   None    Shift=    0.000
 RMSDP=1.13D-03 MaxDP=1.97D-02 DE=-2.23D-02 OVMax= 8.08D-02

 Cycle   3  Pass 1  IDiag  1:
 E= -376.235817085896     Delta-E=       -0.020681438639 Rises=F Damp=F
 DIIS: error= 3.85D-03 at cycle   3 NSaved=   3.
 NSaved= 3 IEnMin= 3 EnMin= -376.235817085896     IErMin= 3 ErrMin= 3.85D-03
 ErrMax= 3.85D-03  0.00D+00 EMaxC= 1.00D-01 BMatC= 1.56D-03 BMatP= 8.16D-03
 IDIUse=3 WtCom= 9.61D-01 WtEn= 3.85D-02
 Coeff-Com: -0.145D+00 0.369D+00 0.776D+00
 Coeff-En:   0.000D+00 0.000D+00 0.100D+01
 Coeff:     -0.139D+00 0.354D+00 0.785D+00
 Gap=     0.398 Goal=   None    Shift=    0.000
 RMSDP=4.83D-04 MaxDP=1.51D-02 DE=-2.07D-02 OVMax= 2.09D-02

 Cycle   4  Pass 1  IDiag  1:
 E= -376.237139987639     Delta-E=       -0.001322901743 Rises=F Damp=F
 DIIS: error= 7.85D-04 at cycle   4 NSaved=   4.
 NSaved= 4 IEnMin= 4 EnMin= -376.237139987639     IErMin= 4 ErrMin= 7.85D-04
 ErrMax= 7.85D-04  0.00D+00 EMaxC= 1.00D-01 BMatC= 8.09D-05 BMatP= 1.56D-03
 IDIUse=3 WtCom= 9.92D-01 WtEn= 7.85D-03
 Coeff-Com: -0.257D-01 0.497D-01 0.245D+00 0.731D+00
 Coeff-En:   0.000D+00 0.000D+00 0.000D+00 0.100D+01
 Coeff:     -0.255D-01 0.493D-01 0.243D+00 0.733D+00
 Gap=     0.399 Goal=   None    Shift=    0.000
 RMSDP=1.04D-04 MaxDP=2.34D-03 DE=-1.32D-03 OVMax= 2.12D-03

 Cycle   5  Pass 1  IDiag  1:
 E= -376.237211842501     Delta-E=       -0.000071854862 Rises=F Damp=F
 DIIS: error= 1.58D-04 at cycle   5 NSaved=   5.
 NSaved= 5 IEnMin= 5 EnMin= -376.237211842501     IErMin= 5 ErrMin= 1.58D-04
 ErrMax= 1.58D-04  0.00D+00 EMaxC= 1.00D-01 BMatC= 3.39D-06 BMatP= 8.09D-05
 IDIUse=3 WtCom= 9.98D-01 WtEn= 1.58D-03
 Coeff-Com: -0.296D-02 0.136D-02 0.533D-01 0.220D+00 0.728D+00
 Coeff-En:   0.000D+00 0.000D+00 0.000D+00 0.000D+00 0.100D+01
 Coeff:     -0.295D-02 0.136D-02 0.532D-01 0.220D+00 0.728D+00
 Gap=     0.400 Goal=   None    Shift=    0.000
 RMSDP=2.36D-05 MaxDP=4.14D-04 DE=-7.19D-05 OVMax= 3.97D-04

 Cycle   6  Pass 1  IDiag  1:
 E= -376.237214392583     Delta-E=       -0.000002550082 Rises=F Damp=F
 DIIS: error= 8.08D-05 at cycle   6 NSaved=   6.
 NSaved= 6 IEnMin= 6 EnMin= -376.237214392583     IErMin= 6 ErrMin= 8.08D-05
 ErrMax= 8.08D-05  0.00D+00 EMaxC= 1.00D-01 BMatC= 6.05D-07 BMatP= 3.39D-06
 IDIUse=1 WtCom= 1.00D+00 WtEn= 0.00D+00
 Coeff-Com:  0.322D-02-0.774D-02-0.148D-01-0.229D-01 0.284D+00 0.759D+00
 Coeff:      0.322D-02-0.774D-02-0.148D-01-0.229D-01 0.284D+00 0.759D+00
 Gap=     0.400 Goal=   None    Shift=    0.000
 RMSDP=1.19D-05 MaxDP=2.55D-04 DE=-2.55D-06 OVMax= 4.28D-04

 Cycle   7  Pass 1  IDiag  1:
 E= -376.237214970078     Delta-E=       -0.000000577495 Rises=F Damp=F
 DIIS: error= 1.42D-05 at cycle   7 NSaved=   7.
 NSaved= 7 IEnMin= 7 EnMin= -376.237214970078     IErMin= 7 ErrMin= 1.42D-05
 ErrMax= 1.42D-05  0.00D+00 EMaxC= 1.00D-01 BMatC= 4.72D-08 BMatP= 6.05D-07
 IDIUse=1 WtCom= 1.00D+00 WtEn= 0.00D+00
 Coeff-Com:  0.962D-03-0.172D-02-0.697D-02-0.298D-01-0.286D-01 0.176D+00
 Coeff-Com:  0.890D+00
 Coeff:      0.962D-03-0.172D-02-0.697D-02-0.298D-01-0.286D-01 0.176D+00
 Coeff:      0.890D+00
 Gap=     0.400 Goal=   None    Shift=    0.000
 RMSDP=3.85D-06 MaxDP=6.88D-05 DE=-5.77D-07 OVMax= 6.30D-05

 Cycle   8  Pass 1  IDiag  1:
 E= -376.237215015783     Delta-E=       -0.000000045705 Rises=F Damp=F
 DIIS: error= 2.89D-06 at cycle   8 NSaved=   8.
 NSaved= 8 IEnMin= 8 EnMin= -376.237215015783     IErMin= 8 ErrMin= 2.89D-06
 ErrMax= 2.89D-06  0.00D+00 EMaxC= 1.00D-01 BMatC= 1.16D-09 BMatP= 4.72D-08
 IDIUse=1 WtCom= 1.00D+00 WtEn= 0.00D+00
 Coeff-Com: -0.365D-04 0.104D-03 0.843D-03 0.506D-03-0.446D-02-0.180D-01
 Coeff-Com: -0.310D-01 0.105D+01
 Coeff:     -0.365D-04 0.104D-03 0.843D-03 0.506D-03-0.446D-02-0.180D-01
 Coeff:     -0.310D-01 0.105D+01
 Gap=     0.400 Goal=   None    Shift=    0.000
 RMSDP=6.72D-07 MaxDP=9.23D-06 DE=-4.57D-08 OVMax= 1.85D-05

 Cycle   9  Pass 1  IDiag  1:
 E= -376.237215016996     Delta-E=       -0.000000001213 Rises=F Damp=F
 DIIS: error= 1.37D-06 at cycle   9 NSaved=   9.
 NSaved= 9 IEnMin= 9 EnMin= -376.237215016996     IErMin= 9 ErrMin= 1.37D-06
 ErrMax= 1.37D-06  0.00D+00 EMaxC= 1.00D-01 BMatC= 2.74D-10 BMatP= 1.16D-09
 IDIUse=1 WtCom= 1.00D+00 WtEn= 0.00D+00
 Coeff-Com: -0.742D-04 0.146D-03 0.878D-03 0.215D-02-0.235D-03-0.218D-01
 Coeff-Com: -0.841D-01 0.480D+00 0.623D+00
 Coeff:     -0.742D-04 0.146D-03 0.878D-03 0.215D-02-0.235D-03-0.218D-01
 Coeff:     -0.841D-01 0.480D+00 0.623D+00
 Gap=     0.400 Goal=   None    Shift=    0.000
 RMSDP=2.18D-07 MaxDP=3.10D-06 DE=-1.21D-09 OVMax= 3.04D-06

 Cycle  10  Pass 1  IDiag  1:
 E= -376.237215017188     Delta-E=       -0.000000000192 Rises=F Damp=F
 DIIS: error= 2.16D-07 at cycle  10 NSaved=  10.
 NSaved=10 IEnMin=10 EnMin= -376.237215017188     IErMin=10 ErrMin= 2.16D-07
 ErrMax= 2.16D-07  0.00D+00 EMaxC= 1.00D-01 BMatC= 1.08D-11 BMatP= 2.74D-10
 IDIUse=1 WtCom= 1.00D+00 WtEn= 0.00D+00
 Coeff-Com: -0.971D-05 0.158D-04 0.142D-03 0.479D-03 0.553D-03-0.326D-02
 Coeff-Com: -0.180D-01 0.993D-03 0.149D+00 0.870D+00
 Coeff:     -0.971D-05 0.158D-04 0.142D-03 0.479D-03 0.553D-03-0.326D-02
 Coeff:     -0.180D-01 0.993D-03 0.149D+00 0.870D+00
 Gap=     0.400 Goal=   None    Shift=    0.000
 RMSDP=5.09D-08 MaxDP=7.37D-07 DE=-1.92D-10 OVMax= 1.12D-06

 Cycle  11  Pass 1  IDiag  1:
 E= -376.237215017197     Delta-E=       -0.000000000009 Rises=F Damp=F
 DIIS: error= 3.42D-08 at cycle  11 NSaved=  11.
 NSaved=11 IEnMin=11 EnMin= -376.237215017197     IErMin=11 ErrMin= 3.42D-08
 ErrMax= 3.42D-08  0.00D+00 EMaxC= 1.00D-01 BMatC= 1.81D-13 BMatP= 1.08D-11
 IDIUse=1 WtCom= 1.00D+00 WtEn= 0.00D+00
 Coeff-Com:  0.266D-05-0.539D-05-0.203D-04-0.460D-04 0.182D-04 0.650D-03
 Coeff-Com:  0.207D-02-0.160D-01-0.161D-01 0.471D-01 0.982D+00
 Coeff:      0.266D-05-0.539D-05-0.203D-04-0.460D-04 0.182D-04 0.650D-03
 Coeff:      0.207D-02-0.160D-01-0.161D-01 0.471D-01 0.982D+00
 Gap=     0.400 Goal=   None    Shift=    0.000
 RMSDP=1.03D-08 MaxDP=1.13D-07 DE=-8.87D-12 OVMax= 1.77D-07

 Cycle  12  Pass 1  IDiag  1:
 E= -376.237215017198     Delta-E=       -0.000000000001 Rises=F Damp=F
 DIIS: error= 2.46D-08 at cycle  12 NSaved=  12.
 NSaved=12 IEnMin=12 EnMin= -376.237215017198     IErMin=12 ErrMin= 2.46D-08
 ErrMax= 2.46D-08  0.00D+00 EMaxC= 1.00D-01 BMatC= 7.07D-14 BMatP= 1.81D-13
 IDIUse=1 WtCom= 1.00D+00 WtEn= 0.00D+00
 Coeff-Com:  0.194D-05-0.372D-05-0.196D-04-0.558D-04-0.417D-04 0.513D-03
 Coeff-Com:  0.212D-02-0.726D-02-0.180D-01-0.379D-01 0.469D+00 0.592D+00
 Coeff:      0.194D-05-0.372D-05-0.196D-04-0.558D-04-0.417D-04 0.513D-03
 Coeff:      0.212D-02-0.726D-02-0.180D-01-0.379D-01 0.469D+00 0.592D+00
 Gap=     0.400 Goal=   None    Shift=    0.000
 RMSDP=2.95D-09 MaxDP=5.36D-08 DE=-1.25D-12 OVMax= 4.90D-08

 Error on total polarization charges =  0.00621
 SCF Done:  E(RM052X) =  -376.237215017     A.U. after   12 cycles
            NFock= 12  Conv=0.30D-08     -V/T= 2.0072
 KE= 3.735333817144D+02 PE=-1.237314234843D+03 EE= 3.147746309328D+02
 SMD-CDS (non-electrostatic) energy       (kcal/mol) =       2.32
 (included in total energy above)
 Leave Link  502 at Thu Jul 10 14:46:30 2025, MaxMem=  2684354560 cpu:              52.7 elap:               2.9
 (Enter /apps/gaussian/g16c01/g16/l601.exe)
 Copying SCF densities to generalized density rwf, IOpCl= 0 IROHF=0.

 **********************************************************************

            Population analysis using the SCF Density.

 **********************************************************************

 Orbital symmetries:
       Occupied  (A) (A) (A) (A) (A) (A) (A) (A) (A) (A) (A) (A)
                 (A) (A) (A) (A) (A) (A) (A) (A)
       Virtual   (A) (A) (A) (A) (A) (A) (A) (A) (A) (A) (A) (A)
                 (A) (A) (A) (A) (A) (A) (A) (A) (A) (A) (A) (A)
                 (A) (A) (A) (A) (A) (A) (A) (A) (A) (A) (A) (A)
                 (A) (A) (A) (A) (A) (A) (A) (A) (A) (A) (A) (A)
                 (A) (A) (A) (A) (A) (A) (A) (A) (A)
 The electronic state is 1-A.
 Alpha  occ. eigenvalues --  -25.34977 -25.34916 -25.32096 -10.75514 -10.66622
 Alpha  occ. eigenvalues --   -1.42972  -1.36892  -1.35889  -0.89813  -0.74470
 Alpha  occ. eigenvalues --   -0.68172  -0.66351  -0.63082  -0.59558  -0.55812
 Alpha  occ. eigenvalues --   -0.55205  -0.54900  -0.52697  -0.47554  -0.31606
 Alpha virt. eigenvalues --    0.08352   0.13324   0.20204   0.22718   0.39118
 Alpha virt. eigenvalues --    0.43179   0.56137   0.56561   0.61275   0.62144
 Alpha virt. eigenvalues --    0.66272   0.67198   0.85841   0.96420   1.05149
 Alpha virt. eigenvalues --    1.15328   1.17793   1.22379   1.27902   1.31123
 Alpha virt. eigenvalues --    1.35109   1.40550   1.41486   1.45257   1.47050
 Alpha virt. eigenvalues --    1.47858   1.60253   1.62288   1.74612   1.80174
 Alpha virt. eigenvalues --    1.83047   1.87438   1.89875   1.90099   1.91329
 Alpha virt. eigenvalues --    1.99521   2.00994   2.03858   2.06513   2.12525
 Alpha virt. eigenvalues --    2.14409   2.27309   2.39736   2.39913   2.56469
 Alpha virt. eigenvalues --    2.61581   2.71298   2.83376   3.03608   3.07584
 Alpha virt. eigenvalues --    3.17464   3.30480   4.06593   4.24488   4.31622
 Alpha virt. eigenvalues --    4.83786   5.32920
          Condensed to atoms (all electrons):
               1          2          3          4          5          6
     1  C    4.978260   0.480458   0.374168   0.259732  -0.056940  -0.050379
     2  C    0.480458   4.440066  -0.055188  -0.032089   0.318615   0.309959
     3  H    0.374168  -0.055188   0.459212  -0.027846   0.001295   0.001178
     4  F    0.259732  -0.032089  -0.027846   9.091777   0.000299   0.000269
     5  F   -0.056940   0.318615   0.001295   0.000299   9.028657  -0.038919
     6  F   -0.050379   0.309959   0.001178   0.000269  -0.038919   9.032803
 Mulliken charges:
               1
     1  C    0.014701
     2  C    0.538179
     3  H    0.247180
     4  F   -0.292143
     5  F   -0.253006
     6  F   -0.254911
 Sum of Mulliken charges =  -0.00000
 Mulliken charges with hydrogens summed into heavy atoms:
               1
     1  C    0.261881
     2  C    0.538179
     4  F   -0.292143
     5  F   -0.253006
     6  F   -0.254911
 Electronic spatial extent (au):  <R**2>=            368.9909
 Charge=             -0.0000 electrons
 Dipole moment (field-independent basis, Debye):
    X=             -0.0409    Y=             -1.6634    Z=             -0.0000  Tot=              1.6639
 Quadrupole moment (field-independent basis, Debye-Ang):
   XX=            -28.4772   YY=            -23.7284   ZZ=            -25.2991
   XY=             -1.6942   XZ=              0.0001   YZ=             -0.0000
 Traceless Quadrupole moment (field-independent basis, Debye-Ang):
   XX=             -2.6423   YY=              2.1065   ZZ=              0.5358
   XY=             -1.6942   XZ=              0.0001   YZ=             -0.0000
 Octapole moment (field-independent basis, Debye-Ang**2):
  XXX=             -5.3744  YYY=             -0.6527  ZZZ=              0.0002  XYY=              2.5602
  XXY=              0.9663  XXZ=              0.0000  XZZ=             -1.3991  YZZ=              2.2775
  YYZ=              0.0001  XYZ=             -0.0001
 Hexadecapole moment (field-independent basis, Debye-Ang**3):
 XXXX=           -235.0087 YYYY=            -91.2779 ZZZZ=            -18.8544 XXXY=              1.2391
 XXXZ=              0.0014 YYYX=             -0.3394 YYYZ=              0.0004 ZZZX=              0.0013
 ZZZY=              0.0005 XXYY=            -52.0237 XXZZ=            -40.0047 YYZZ=            -20.2196
 XXYZ=              0.0002 YYXZ=              0.0005 ZZXY=              1.3913
 N-N= 1.727690071787D+02 E-N=-1.237314234462D+03  KE= 3.735333817144D+02
 No NMR shielding tensors so no spin-rotation constants.
 Leave Link  601 at Thu Jul 10 14:46:31 2025, MaxMem=  2684354560 cpu:              16.3 elap:               1.6
 (Enter /apps/gaussian/g16c01/g16/l9999.exe)
 Unable to Open any file for archive entry.
 1\1\GINC-GADI-CPU-CLX-1983\SP\RM052X\6-31G(d)\C2H1F3\YR9300\10-Jul-202
 5\0\\#P M052X/6-31G* scrf(SMD,solvent=n-octanol)\\H1F3_wat_M05-2x\\0,1
 \C,0,0.743807,-0.651108,-0.000012\C,0,-0.428463,-0.04409,-0.000012\H,0
 ,0.872538,-1.722585,0.000016\F,0,1.880413,0.078815,-0.000016\F,0,-0.60
 4086,1.267327,-0.00001\F,0,-1.583505,-0.691279,0.00004\\Version=ES64L-
 G16RevC.01\State=1-A\HF=-376.237215\RMSD=2.955e-09\Dipole=-0.016096,-0
 .6544232,-0.0000008\Quadrupole=-1.9644881,1.5661292,0.3983589,-1.25961
 93,0.0000637,-0.0000129\PG=C01 [X(C2H1F3)]\\@
 The archive entry for this job was punched.


 THE PROBLEM WITH THE LADDER OF SUCCESS IS YOU CAN'T
 CLIMB IT WHILE YOU'RE TWIDDLING YOUR THUMBS.
 Job cpu time:       0 days  0 hours  1 minutes 44.7 seconds.
 Elapsed time:       0 days  0 hours  0 minutes  7.2 seconds.
 File lengths (MBytes):  RWF=     14 Int=      0 D2E=      0 Chk=      2 Scr=      1
 Normal termination of Gaussian 16 at Thu Jul 10 14:46:31 2025.
