 Entering Gaussian System, Link 0=g16
 Initial command:
 /apps/gaussian/g16c01/g16/l1.exe "/jobfs/145006961.gadi-pbs/Gau-3617763.inp" -scrdir="/jobfs/145006961.gadi-pbs/"
 Entering Link 1 = /apps/gaussian/g16c01/g16/l1.exe PID=   3617764.
  
 Copyright (c) 1988-2019, Gaussian, Inc.  All Rights Reserved.
  
 This is part of the Gaussian(R) 16 program.  It is based on
 the Gaussian(R) 09 system (copyright 2009, Gaussian, Inc.),
 the Gaussian(R) 03 system (copyright 2003, Gaussian, Inc.),
 the Gaussian(R) 98 system (copyright 1998, Gaussian, Inc.),
 the Gaussian(R) 94 system (copyright 1995, Gaussian, Inc.),
 the Gaussian 92(TM) system (copyright 1992, Gaussian, Inc.),
 the Gaussian 90(TM) system (copyright 1990, Gaussian, Inc.),
 the Gaussian 88(TM) system (copyright 1988, Gaussian, Inc.),
 the Gaussian 86(TM) system (copyright 1986, Carnegie Mellon
 University), and the Gaussian 82(TM) system (copyright 1983,
 Carnegie Mellon University). Gaussian is a federally registered
 trademark of Gaussian, Inc.
  
 This software contains proprietary and confidential information,
 including trade secrets, belonging to Gaussian, Inc.
  
 This software is provided under written license and may be
 used, copied, transmitted, or stored only in accord with that
 written license.
  
 The following legend is applicable only to US Government
 contracts under FAR:
  
                    RESTRICTED RIGHTS LEGEND
  
 Use, reproduction and disclosure by the US Government is
 subject to restrictions as set forth in subparagraphs (a)
 and (c) of the Commercial Computer Software - Restricted
 Rights clause in FAR 52.227-19.
  
 Gaussian, Inc.
 340 Quinnipiac St., Bldg. 40, Wallingford CT 06492
  
  
 ---------------------------------------------------------------
 Warning -- This program may not be used in any manner that
 competes with the business of Gaussian, Inc. or will provide
 assistance to any competitor of Gaussian, Inc.  The licensee
 of this program is prohibited from giving any competitor of
 Gaussian, Inc. access to this program.  By using this program,
 the user acknowledges that Gaussian, Inc. is engaged in the
 business of creating and licensing software in the field of
 computational chemistry and represents and warrants to the
 licensee that it is not a competitor of Gaussian, Inc. and that
 it will not use this program in any manner prohibited above.
 ---------------------------------------------------------------
  

 Cite this work as:
 Gaussian 16, Revision C.01,
 M. J. Frisch, G. W. Trucks, H. B. Schlegel, G. E. Scuseria, 
 M. A. Robb, J. R. Cheeseman, G. Scalmani, V. Barone, 
 G. A. Petersson, H. Nakatsuji, X. Li, M. Caricato, A. V. Marenich, 
 J. Bloino, B. G. Janesko, R. Gomperts, B. Mennucci, H. P. Hratchian, 
 J. V. Ortiz, A. F. Izmaylov, J. L. Sonnenberg, D. Williams-Young, 
 F. Ding, F. Lipparini, F. Egidi, J. Goings, B. Peng, A. Petrone, 
 T. Henderson, D. Ranasinghe, V. G. Zakrzewski, J. Gao, N. Rega, 
 G. Zheng, W. Liang, M. Hada, M. Ehara, K. Toyota, R. Fukuda, 
 J. Hasegawa, M. Ishida, T. Nakajima, Y. Honda, O. Kitao, H. Nakai, 
 T. Vreven, K. Throssell, J. A. Montgomery, Jr., J. E. Peralta, 
 F. Ogliaro, M. J. Bearpark, J. J. Heyd, E. N. Brothers, K. N. Kudin, 
 V. N. Staroverov, T. A. Keith, R. Kobayashi, J. Normand, 
 K. Raghavachari, A. P. Rendell, J. C. Burant, S. S. Iyengar, 
 J. Tomasi, M. Cossi, J. M. Millam, M. Klene, C. Adamo, R. Cammi, 
 J. W. Ochterski, R. L. Martin, K. Morokuma, O. Farkas, 
 J. B. Foresman, and D. J. Fox, Gaussian, Inc., Wallingford CT, 2019.
 
 ******************************************
 Gaussian 16:  ES64L-G16RevC.01  3-Jul-2019
                10-Jul-2025 
 ******************************************
 %chk=H1F3_oct_M05-2x.chk
 %mem=20GB
 %nprocshared=20
 Will use up to   20 processors via shared memory.
 -------------------------------------------
 #P M052X/6-31G* scrf(SMD,solvent=n-octanol)
 -------------------------------------------
 1/38=1,172=1/1;
 2/12=2,17=6,18=5,40=1/2;
 3/5=1,6=6,7=1,11=2,25=1,30=1,70=32201,72=25,74=-38/1,2,3;
 4//1;
 5/5=2,38=5,53=25/2;
 6/7=2,8=2,9=2,10=2,28=1/1;
 99/5=1,9=1/99;
 Leave Link    1 at Thu Jul 10 14:15:30 2025, MaxMem=  2684354560 cpu:               1.5 elap:               0.1
 (Enter /apps/gaussian/g16c01/g16/l101.exe)
 ---------------
 H1F3_oct_M05-2x
 ---------------
 Symbolic Z-matrix:
 Charge =  0 Multiplicity = 1
 C                     0.7451   -0.64751   0.00001 
 C                    -0.42847  -0.04263   0.00002 
 H                     0.87212  -1.71978   0.00001 
 F                     1.88249   0.07916  -0.00003 
 F                    -0.60942   1.26746  -0.00001 
 F                    -1.58106  -0.69544   0.00002 
 
 ITRead=  0  0  0  0  0  0
 MicOpt= -1 -1 -1 -1 -1 -1
 NAtoms=      6 NQM=        6 NQMF=       0 NMMI=      0 NMMIF=      0
                NMic=       0 NMicF=      0.
                    Isotopes and Nuclear Properties:
 (Nuclear quadrupole moments (NQMom) in fm**2, nuclear magnetic moments (NMagM)
  in nuclear magnetons)

  Atom         1           2           3           4           5           6
 IAtWgt=          12          12           1          19          19          19
 AtmWgt=  12.0000000  12.0000000   1.0078250  18.9984033  18.9984033  18.9984033
 NucSpn=           0           0           1           1           1           1
 AtZEff=  -0.0000000  -0.0000000  -0.0000000  -0.0000000  -0.0000000  -0.0000000
 NQMom=    0.0000000   0.0000000   0.0000000   0.0000000   0.0000000   0.0000000
 NMagM=    0.0000000   0.0000000   2.7928460   2.6288670   2.6288670   2.6288670
 AtZNuc=   6.0000000   6.0000000   1.0000000   9.0000000   9.0000000   9.0000000
 Leave Link  101 at Thu Jul 10 14:15:30 2025, MaxMem=  2684354560 cpu:               3.6 elap:               0.2
 (Enter /apps/gaussian/g16c01/g16/l202.exe)
                          Input orientation:                          
 ---------------------------------------------------------------------
 Center     Atomic      Atomic             Coordinates (Angstroms)
 Number     Number       Type             X           Y           Z
 ---------------------------------------------------------------------
      1          6           0        0.745098   -0.647513    0.000011
      2          6           0       -0.428468   -0.042632    0.000021
      3          1           0        0.872123   -1.719777    0.000013
      4          9           0        1.882491    0.079156   -0.000032
      5          9           0       -0.609423    1.267461   -0.000013
      6          9           0       -1.581057   -0.695435    0.000022
 ---------------------------------------------------------------------
                    Distance matrix (angstroms):
                    1          2          3          4          5
     1  C    0.000000
     2  C    1.320280   0.000000
     3  H    1.079762   2.122346   0.000000
     4  F    1.349708   2.314166   2.063251   0.000000
     5  F    2.345603   1.322531   3.334452   2.760743   0.000000
     6  F    2.326649   1.324618   2.658452   3.549106   2.190213
                    6
     6  F    0.000000
 Stoichiometry    C2HF3
 Framework group  C1[X(C2HF3)]
 Deg. of freedom    12
 Full point group                 C1      NOp   1
 Largest Abelian subgroup         C1      NOp   1
 Largest concise Abelian subgroup C1      NOp   1
                         Standard orientation:                         
 ---------------------------------------------------------------------
 Center     Atomic      Atomic             Coordinates (Angstroms)
 Number     Number       Type             X           Y           Z
 ---------------------------------------------------------------------
      1          6           0        0.745098   -0.647513    0.000011
      2          6           0       -0.428468   -0.042632    0.000021
      3          1           0        0.872123   -1.719777    0.000013
      4          9           0        1.882491    0.079157   -0.000032
      5          9           0       -0.609423    1.267461   -0.000013
      6          9           0       -1.581057   -0.695435    0.000022
 ---------------------------------------------------------------------
 Rotational constants (GHZ):          10.5847678           3.8421484           2.8189149
 Leave Link  202 at Thu Jul 10 14:15:30 2025, MaxMem=  2684354560 cpu:               0.8 elap:               0.1
 (Enter /apps/gaussian/g16c01/g16/l301.exe)
 Standard basis: 6-31G(d) (6D, 7F)
 Ernie: Thresh=  0.10000D-02 Tol=  0.10000D-05 Strict=F.
 There are    77 symmetry adapted cartesian basis functions of A   symmetry.
 There are    77 symmetry adapted basis functions of A   symmetry.
    77 basis functions,   144 primitive gaussians,    77 cartesian basis functions
    20 alpha electrons       20 beta electrons
       nuclear repulsion energy       172.7309876990 Hartrees.
 IExCor= 3428 DFT=T Ex+Corr=M052X ExCW=0 ScaHFX=  0.560000
 ScaDFX=  0.440000  0.440000  1.000000  1.000000 ScalE2=  1.000000  1.000000
 IRadAn=      5 IRanWt=     -1 IRanGd=            0 ICorTp=0 IEmpDi=  4
 NAtoms=    6 NActive=    6 NUniq=    6 SFac= 1.00D+00 NAtFMM=   60 NAOKFM=F Big=F
 Integral buffers will be    131072 words long.
 Raffenetti 2 integral format.
 Two-electron integral symmetry is turned on.
 ------------------------------------------------------------------------------
 Polarizable Continuum Model (PCM)
 =================================
 Model                : PCM.
 Atomic radii         : SMD-Coulomb.
 Polarization charges : Total charges.
 Charge compensation  : None.
 Solution method      : On-the-fly selection.
 Cavity type          : VdW (van der Waals Surface) (Alpha=1.000).
 Cavity algorithm     : GePol (No added spheres)
                        Default sphere list used, NSphG=    6.
                        Lebedev-Laikov grids with approx.  5.0 points / Ang**2.
                        Smoothing algorithm: York/Karplus (Gamma=1.0000).
                        Polarization charges: spherical gaussians, with
                                              point-specific exponents (IZeta= 3).
                        Self-potential: point-specific (ISelfS= 7).
                        Self-field    : sphere-specific E.n sum rule (ISelfD= 2).
 Solvent              : n-Octanol, Eps=   9.862900 Eps(inf)=   2.043470
 ------------------------------------------------------------------------------
 Spheres list:
 ISph  on   Nord     Re0    Alpha      Xe            Ye            Ze
    1   C      1    1.8500  1.000      0.745098     -0.647513      0.000011
    2   C      2    1.8500  1.000     -0.428468     -0.042632      0.000021
    3   H      3    1.2000  1.000      0.872123     -1.719777      0.000013
    4   F      4    1.7300  1.000      1.882491      0.079157     -0.000032
    5   F      5    1.7300  1.000     -0.609423      1.267461     -0.000013
    6   F      6    1.7300  1.000     -1.581057     -0.695435      0.000022
 ------------------------------------------------------------------------------
 GePol: Number of generator spheres                  =       6
 GePol: Total number of spheres                      =       6
 GePol: Number of exposed spheres                    =       6 (100.00%)
 GePol: Number of points                             =     647
 GePol: Average weight of points                     =       0.15
 GePol: Minimum weight of points                     =   0.56D-07
 GePol: Maximum weight of points                     =    0.21501
 GePol: Number of points with low weight             =      33
 GePol: Fraction of low-weight points (<1% of avg)   =       5.10%
 GePol: Cavity surface area                          =     94.641 Ang**2
 GePol: Cavity volume                                =     72.035 Ang**3
 ------------------------------------------------------------------------------
 Atomic radii for non-electrostatic terms: SMD-CDS.
 ------------------------------------------------------------------------------
 PCM non-electrostatic energy =         0.0036987802 Hartrees.
 Nuclear repulsion after PCM non-electrostatic terms =      172.7346864791 Hartrees.
 Leave Link  301 at Thu Jul 10 14:15:30 2025, MaxMem=  2684354560 cpu:               2.3 elap:               0.1
 (Enter /apps/gaussian/g16c01/g16/l302.exe)
 NPDir=0 NMtPBC=     1 NCelOv=     1 NCel=       1 NClECP=     1 NCelD=      1
         NCelK=      1 NCelE2=     1 NClLst=     1 CellRange=     0.0.
 One-electron integrals computed using PRISM.
 One-electron integral symmetry used in STVInt
 NBasis=    77 RedAO= T EigKep=  2.55D-03  NBF=    77
 NBsUse=    77 1.00D-06 EigRej= -1.00D+00 NBFU=    77
 Precomputing XC quadrature grid using
 IXCGrd= 4 IRadAn=           5 IRanWt=          -1 IRanGd=           0 AccXCQ= 0.00D+00.
 Generated NRdTot=       0 NPtTot=           0 NUsed=           0 NTot=          32
 NSgBfM=    77    77    77    77    77 MxSgAt=     6 MxSgA2=     6.
 Leave Link  302 at Thu Jul 10 14:15:30 2025, MaxMem=  2684354560 cpu:               2.6 elap:               0.2
 (Enter /apps/gaussian/g16c01/g16/l303.exe)
 DipDrv:  MaxL=1.
 Leave Link  303 at Thu Jul 10 14:15:31 2025, MaxMem=  2684354560 cpu:               1.3 elap:               0.1
 (Enter /apps/gaussian/g16c01/g16/l401.exe)
 ExpMin= 1.61D-01 ExpMax= 7.00D+03 ExpMxC= 1.05D+03 IAcc=3 IRadAn=         5 AccDes= 0.00D+00
 Harris functional with IExCor= 1009 and IRadAn=       5 diagonalized for initial guess.
 HarFok:  IExCor= 1009 AccDes= 0.00D+00 IRadAn=         5 IDoV= 1 UseB2=F ITyADJ=14
 ICtDFT=  3500011 ScaDFX=  1.000000  1.000000  1.000000  1.000000
 FoFCou: FMM=F IPFlag=           0 FMFlag=      100000 FMFlg1=           0
         NFxFlg=           0 DoJE=T BraDBF=F KetDBF=T FulRan=T
         wScrn=  0.000000 ICntrl=       500 IOpCl=  0 I1Cent=   200000004 NGrid=           0
         NMat0=    1 NMatS0=      1 NMatT0=    0 NMatD0=    1 NMtDS0=    0 NMtDT0=    0
 Petite list used in FoFCou.
 Harris En= -375.910586217455    
 JPrj=0 DoOrth=F DoCkMO=F.
 Leave Link  401 at Thu Jul 10 14:15:31 2025, MaxMem=  2684354560 cpu:               3.8 elap:               0.2
 (Enter /apps/gaussian/g16c01/g16/l502.exe)
 Keep R1 ints in memory in canonical form, NReq=22558587.
 FoFCou: FMM=F IPFlag=           0 FMFlag=           0 FMFlg1=           0
         NFxFlg=           0 DoJE=F BraDBF=F KetDBF=F FulRan=T
         wScrn=  0.000000 ICntrl=       600 IOpCl=  0 I1Cent=           0 NGrid=           0
         NMat0=    1 NMatS0=   3003 NMatT0=    0 NMatD0=    1 NMtDS0=    0 NMtDT0=    0
 Symmetry not used in FoFCou.
 Two-electron integral symmetry not used.
 Closed shell SCF:
 Using DIIS extrapolation, IDIIS=  1040.
 NGot=  2684354560 LenX=  2679829617 LenY=  2679823247
 Requested convergence on RMS density matrix=1.00D-08 within 128 cycles.
 Requested convergence on MAX density matrix=1.00D-06.
 Requested convergence on             energy=1.00D-06.
 No special actions if energy rises.

 Cycle   1  Pass 1  IDiag  1:
 Inv3:  Mode=1 IEnd=     1255827.
 Iteration    1 A*A^-1 deviation from unit magnitude is 3.44D-15 for    623.
 Iteration    1 A*A^-1 deviation from orthogonality  is 1.72D-15 for    626     36.
 Iteration    1 A^-1*A deviation from unit magnitude is 3.44D-15 for    623.
 Iteration    1 A^-1*A deviation from orthogonality  is 9.99D-16 for    647    589.
 E= -376.192843946627    
 DIIS: error= 1.80D-02 at cycle   1 NSaved=   1.
 NSaved= 1 IEnMin= 1 EnMin= -376.192843946627     IErMin= 1 ErrMin= 1.80D-02
 ErrMax= 1.80D-02  0.00D+00 EMaxC= 1.00D-01 BMatC= 6.67D-02 BMatP= 6.67D-02
 IDIUse=3 WtCom= 8.20D-01 WtEn= 1.80D-01
 Coeff-Com:  0.100D+01
 Coeff-En:   0.100D+01
 Coeff:      0.100D+01
 Gap=     0.376 Goal=   None    Shift=    0.000
 GapD=    0.376 DampG=1.000 DampE=0.500 DampFc=0.5000 IDamp=-1.
 Damping current iteration by 5.00D-01
 RMSDP=3.94D-03 MaxDP=1.13D-01              OVMax= 1.50D-01

 Cycle   2  Pass 1  IDiag  1:
 E= -376.215132593318     Delta-E=       -0.022288646691 Rises=F Damp=T
 DIIS: error= 1.03D-02 at cycle   2 NSaved=   2.
 NSaved= 2 IEnMin= 2 EnMin= -376.215132593318     IErMin= 2 ErrMin= 1.03D-02
 ErrMax= 1.03D-02  0.00D+00 EMaxC= 1.00D-01 BMatC= 8.16D-03 BMatP= 6.67D-02
 IDIUse=3 WtCom= 8.97D-01 WtEn= 1.03D-01
 Coeff-Com: -0.187D+00 0.119D+01
 Coeff-En:   0.000D+00 0.100D+01
 Coeff:     -0.168D+00 0.117D+01
 Gap=     0.396 Goal=   None    Shift=    0.000
 RMSDP=1.13D-03 MaxDP=1.97D-02 DE=-2.23D-02 OVMax= 8.08D-02

 Cycle   3  Pass 1  IDiag  1:
 E= -376.235797329182     Delta-E=       -0.020664735864 Rises=F Damp=F
 DIIS: error= 3.86D-03 at cycle   3 NSaved=   3.
 NSaved= 3 IEnMin= 3 EnMin= -376.235797329182     IErMin= 3 ErrMin= 3.86D-03
 ErrMax= 3.86D-03  0.00D+00 EMaxC= 1.00D-01 BMatC= 1.56D-03 BMatP= 8.16D-03
 IDIUse=3 WtCom= 9.61D-01 WtEn= 3.86D-02
 Coeff-Com: -0.145D+00 0.369D+00 0.776D+00
 Coeff-En:   0.000D+00 0.000D+00 0.100D+01
 Coeff:     -0.140D+00 0.355D+00 0.785D+00
 Gap=     0.398 Goal=   None    Shift=    0.000
 RMSDP=4.84D-04 MaxDP=1.51D-02 DE=-2.07D-02 OVMax= 2.10D-02

 Cycle   4  Pass 1  IDiag  1:
 E= -376.237125647709     Delta-E=       -0.001328318527 Rises=F Damp=F
 DIIS: error= 7.83D-04 at cycle   4 NSaved=   4.
 NSaved= 4 IEnMin= 4 EnMin= -376.237125647709     IErMin= 4 ErrMin= 7.83D-04
 ErrMax= 7.83D-04  0.00D+00 EMaxC= 1.00D-01 BMatC= 8.11D-05 BMatP= 1.56D-03
 IDIUse=3 WtCom= 9.92D-01 WtEn= 7.83D-03
 Coeff-Com: -0.258D-01 0.499D-01 0.245D+00 0.731D+00
 Coeff-En:   0.000D+00 0.000D+00 0.000D+00 0.100D+01
 Coeff:     -0.256D-01 0.495D-01 0.243D+00 0.733D+00
 Gap=     0.399 Goal=   None    Shift=    0.000
 RMSDP=1.04D-04 MaxDP=2.35D-03 DE=-1.33D-03 OVMax= 2.13D-03

 Cycle   5  Pass 1  IDiag  1:
 E= -376.237197696469     Delta-E=       -0.000072048760 Rises=F Damp=F
 DIIS: error= 1.57D-04 at cycle   5 NSaved=   5.
 NSaved= 5 IEnMin= 5 EnMin= -376.237197696469     IErMin= 5 ErrMin= 1.57D-04
 ErrMax= 1.57D-04  0.00D+00 EMaxC= 1.00D-01 BMatC= 3.38D-06 BMatP= 8.11D-05
 IDIUse=3 WtCom= 9.98D-01 WtEn= 1.57D-03
 Coeff-Com: -0.296D-02 0.138D-02 0.533D-01 0.220D+00 0.728D+00
 Coeff-En:   0.000D+00 0.000D+00 0.000D+00 0.000D+00 0.100D+01
 Coeff:     -0.296D-02 0.138D-02 0.532D-01 0.220D+00 0.729D+00
 Gap=     0.400 Goal=   None    Shift=    0.000
 RMSDP=2.36D-05 MaxDP=4.14D-04 DE=-7.20D-05 OVMax= 3.96D-04

 Cycle   6  Pass 1  IDiag  1:
 E= -376.237200245716     Delta-E=       -0.000002549247 Rises=F Damp=F
 DIIS: error= 8.07D-05 at cycle   6 NSaved=   6.
 NSaved= 6 IEnMin= 6 EnMin= -376.237200245716     IErMin= 6 ErrMin= 8.07D-05
 ErrMax= 8.07D-05  0.00D+00 EMaxC= 1.00D-01 BMatC= 6.06D-07 BMatP= 3.38D-06
 IDIUse=1 WtCom= 1.00D+00 WtEn= 0.00D+00
 Coeff-Com:  0.323D-02-0.775D-02-0.148D-01-0.230D-01 0.284D+00 0.759D+00
 Coeff:      0.323D-02-0.775D-02-0.148D-01-0.230D-01 0.284D+00 0.759D+00
 Gap=     0.400 Goal=   None    Shift=    0.000
 RMSDP=1.19D-05 MaxDP=2.55D-04 DE=-2.55D-06 OVMax= 4.28D-04

 Cycle   7  Pass 1  IDiag  1:
 E= -376.237200822987     Delta-E=       -0.000000577271 Rises=F Damp=F
 DIIS: error= 1.41D-05 at cycle   7 NSaved=   7.
 NSaved= 7 IEnMin= 7 EnMin= -376.237200822987     IErMin= 7 ErrMin= 1.41D-05
 ErrMax= 1.41D-05  0.00D+00 EMaxC= 1.00D-01 BMatC= 4.71D-08 BMatP= 6.06D-07
 IDIUse=1 WtCom= 1.00D+00 WtEn= 0.00D+00
 Coeff-Com:  0.964D-03-0.172D-02-0.697D-02-0.299D-01-0.285D-01 0.176D+00
 Coeff-Com:  0.890D+00
 Coeff:      0.964D-03-0.172D-02-0.697D-02-0.299D-01-0.285D-01 0.176D+00
 Coeff:      0.890D+00
 Gap=     0.400 Goal=   None    Shift=    0.000
 RMSDP=3.86D-06 MaxDP=6.91D-05 DE=-5.77D-07 OVMax= 6.30D-05

 Cycle   8  Pass 1  IDiag  1:
 E= -376.237200868707     Delta-E=       -0.000000045720 Rises=F Damp=F
 DIIS: error= 2.91D-06 at cycle   8 NSaved=   8.
 NSaved= 8 IEnMin= 8 EnMin= -376.237200868707     IErMin= 8 ErrMin= 2.91D-06
 ErrMax= 2.91D-06  0.00D+00 EMaxC= 1.00D-01 BMatC= 1.17D-09 BMatP= 4.71D-08
 IDIUse=1 WtCom= 1.00D+00 WtEn= 0.00D+00
 Coeff-Com: -0.308D-04 0.946D-04 0.797D-03 0.323D-03-0.461D-02-0.167D-01
 Coeff-Com: -0.243D-01 0.104D+01
 Coeff:     -0.308D-04 0.946D-04 0.797D-03 0.323D-03-0.461D-02-0.167D-01
 Coeff:     -0.243D-01 0.104D+01
 Gap=     0.400 Goal=   None    Shift=    0.000
 RMSDP=6.67D-07 MaxDP=9.21D-06 DE=-4.57D-08 OVMax= 1.85D-05

 Cycle   9  Pass 1  IDiag  1:
 E= -376.237200869913     Delta-E=       -0.000000001207 Rises=F Damp=F
 DIIS: error= 1.39D-06 at cycle   9 NSaved=   9.
 NSaved= 9 IEnMin= 9 EnMin= -376.237200869913     IErMin= 9 ErrMin= 1.39D-06
 ErrMax= 1.39D-06  0.00D+00 EMaxC= 1.00D-01 BMatC= 2.92D-10 BMatP= 1.17D-09
 IDIUse=1 WtCom= 1.00D+00 WtEn= 0.00D+00
 Coeff-Com: -0.751D-04 0.147D-03 0.884D-03 0.217D-02-0.243D-03-0.220D-01
 Coeff-Com: -0.846D-01 0.482D+00 0.622D+00
 Coeff:     -0.751D-04 0.147D-03 0.884D-03 0.217D-02-0.243D-03-0.220D-01
 Coeff:     -0.846D-01 0.482D+00 0.622D+00
 Gap=     0.400 Goal=   None    Shift=    0.000
 RMSDP=2.25D-07 MaxDP=3.19D-06 DE=-1.21D-09 OVMax= 3.16D-06

 Cycle  10  Pass 1  IDiag  1:
 E= -376.237200870118     Delta-E=       -0.000000000205 Rises=F Damp=F
 DIIS: error= 2.12D-07 at cycle  10 NSaved=  10.
 NSaved=10 IEnMin=10 EnMin= -376.237200870118     IErMin=10 ErrMin= 2.12D-07
 ErrMax= 2.12D-07  0.00D+00 EMaxC= 1.00D-01 BMatC= 1.05D-11 BMatP= 2.92D-10
 IDIUse=1 WtCom= 1.00D+00 WtEn= 0.00D+00
 Coeff-Com: -0.975D-05 0.159D-04 0.142D-03 0.479D-03 0.554D-03-0.327D-02
 Coeff-Com: -0.180D-01 0.968D-03 0.142D+00 0.878D+00
 Coeff:     -0.975D-05 0.159D-04 0.142D-03 0.479D-03 0.554D-03-0.327D-02
 Coeff:     -0.180D-01 0.968D-03 0.142D+00 0.878D+00
 Gap=     0.400 Goal=   None    Shift=    0.000
 RMSDP=5.14D-08 MaxDP=7.44D-07 DE=-2.05D-10 OVMax= 1.13D-06

 Cycle  11  Pass 1  IDiag  1:
 E= -376.237200870129     Delta-E=       -0.000000000011 Rises=F Damp=F
 DIIS: error= 3.47D-08 at cycle  11 NSaved=  11.
 NSaved=11 IEnMin=11 EnMin= -376.237200870129     IErMin=11 ErrMin= 3.47D-08
 ErrMax= 3.47D-08  0.00D+00 EMaxC= 1.00D-01 BMatC= 1.86D-13 BMatP= 1.05D-11
 IDIUse=1 WtCom= 1.00D+00 WtEn= 0.00D+00
 Coeff-Com:  0.261D-05-0.531D-05-0.195D-04-0.432D-04 0.217D-04 0.632D-03
 Coeff-Com:  0.196D-02-0.159D-01-0.155D-01 0.523D-01 0.977D+00
 Coeff:      0.261D-05-0.531D-05-0.195D-04-0.432D-04 0.217D-04 0.632D-03
 Coeff:      0.196D-02-0.159D-01-0.155D-01 0.523D-01 0.977D+00
 Gap=     0.400 Goal=   None    Shift=    0.000
 RMSDP=1.03D-08 MaxDP=1.16D-07 DE=-1.07D-11 OVMax= 1.78D-07

 Cycle  12  Pass 1  IDiag  1:
 E= -376.237200870128     Delta-E=        0.000000000001 Rises=F Damp=F
 DIIS: error= 2.51D-08 at cycle  12 NSaved=  12.
 NSaved=12 IEnMin=11 EnMin= -376.237200870129     IErMin=12 ErrMin= 2.51D-08
 ErrMax= 2.51D-08  0.00D+00 EMaxC= 1.00D-01 BMatC= 7.47D-14 BMatP= 1.86D-13
 IDIUse=1 WtCom= 1.00D+00 WtEn= 0.00D+00
 Coeff-Com:  0.196D-05-0.376D-05-0.197D-04-0.561D-04-0.418D-04 0.516D-03
 Coeff-Com:  0.213D-02-0.725D-02-0.177D-01-0.386D-01 0.469D+00 0.592D+00
 Coeff:      0.196D-05-0.376D-05-0.197D-04-0.561D-04-0.418D-04 0.516D-03
 Coeff:      0.213D-02-0.725D-02-0.177D-01-0.386D-01 0.469D+00 0.592D+00
 Gap=     0.400 Goal=   None    Shift=    0.000
 RMSDP=3.03D-09 MaxDP=5.49D-08 DE= 9.09D-13 OVMax= 5.05D-08

 Error on total polarization charges =  0.00621
 SCF Done:  E(RM052X) =  -376.237200870     A.U. after   12 cycles
            NFock= 12  Conv=0.30D-08     -V/T= 2.0072
 KE= 3.735338495100D+02 PE=-1.237242472207D+03 EE= 3.147367353478D+02
 SMD-CDS (non-electrostatic) energy       (kcal/mol) =       2.32
 (included in total energy above)
 Leave Link  502 at Thu Jul 10 14:15:34 2025, MaxMem=  2684354560 cpu:              51.7 elap:               2.7
 (Enter /apps/gaussian/g16c01/g16/l601.exe)
 Copying SCF densities to generalized density rwf, IOpCl= 0 IROHF=0.

 **********************************************************************

            Population analysis using the SCF Density.

 **********************************************************************

 Orbital symmetries:
       Occupied  (A) (A) (A) (A) (A) (A) (A) (A) (A) (A) (A) (A)
                 (A) (A) (A) (A) (A) (A) (A) (A)
       Virtual   (A) (A) (A) (A) (A) (A) (A) (A) (A) (A) (A) (A)
                 (A) (A) (A) (A) (A) (A) (A) (A) (A) (A) (A) (A)
                 (A) (A) (A) (A) (A) (A) (A) (A) (A) (A) (A) (A)
                 (A) (A) (A) (A) (A) (A) (A) (A) (A) (A) (A) (A)
                 (A) (A) (A) (A) (A) (A) (A) (A) (A)
 The electronic state is 1-A.
 Alpha  occ. eigenvalues --  -25.34951 -25.34938 -25.32124 -10.75508 -10.66626
 Alpha  occ. eigenvalues --   -1.42967  -1.36894  -1.35944  -0.89807  -0.74471
 Alpha  occ. eigenvalues --   -0.68168  -0.66370  -0.63079  -0.59583  -0.55845
 Alpha  occ. eigenvalues --   -0.55212  -0.54905  -0.52701  -0.47535  -0.31596
 Alpha virt. eigenvalues --    0.08361   0.13348   0.20203   0.22716   0.39159
 Alpha virt. eigenvalues --    0.43170   0.56147   0.56560   0.61235   0.62149
 Alpha virt. eigenvalues --    0.66304   0.67203   0.85820   0.96383   1.05155
 Alpha virt. eigenvalues --    1.15333   1.17780   1.22398   1.27889   1.31130
 Alpha virt. eigenvalues --    1.35135   1.40664   1.41466   1.45241   1.47058
 Alpha virt. eigenvalues --    1.47762   1.60272   1.62394   1.74583   1.80106
 Alpha virt. eigenvalues --    1.83013   1.87578   1.89867   1.90093   1.91319
 Alpha virt. eigenvalues --    1.99555   2.01009   2.03843   2.06527   2.12510
 Alpha virt. eigenvalues --    2.14333   2.27287   2.39780   2.40082   2.56535
 Alpha virt. eigenvalues --    2.61469   2.71490   2.83366   3.03709   3.07573
 Alpha virt. eigenvalues --    3.17478   3.30502   4.06788   4.24784   4.31579
 Alpha virt. eigenvalues --    4.83555   5.33287
          Condensed to atoms (all electrons):
               1          2          3          4          5          6
     1  C    4.977872   0.480281   0.374252   0.260212  -0.056762  -0.050369
     2  C    0.480281   4.440833  -0.055392  -0.032033   0.318721   0.309430
     3  H    0.374252  -0.055392   0.459913  -0.027948   0.001299   0.001201
     4  F    0.260212  -0.032033  -0.027948   9.090505   0.000294   0.000269
     5  F   -0.056762   0.318721   0.001299   0.000294   9.027811  -0.038866
     6  F   -0.050369   0.309430   0.001201   0.000269  -0.038866   9.033888
 Mulliken charges:
               1
     1  C    0.014515
     2  C    0.538159
     3  H    0.246675
     4  F   -0.291299
     5  F   -0.252498
     6  F   -0.255552
 Sum of Mulliken charges =  -0.00000
 Mulliken charges with hydrogens summed into heavy atoms:
               1
     1  C    0.261190
     2  C    0.538159
     4  F   -0.291299
     5  F   -0.252498
     6  F   -0.255552
 Electronic spatial extent (au):  <R**2>=            369.3145
 Charge=             -0.0000 electrons
 Dipole moment (field-independent basis, Debye):
    X=             -0.0322    Y=             -1.6462    Z=              0.0000  Tot=              1.6465
 Quadrupole moment (field-independent basis, Debye-Ang):
   XX=            -28.4776   YY=            -23.7460   ZZ=            -25.2998
   XY=             -1.6917   XZ=              0.0000   YZ=              0.0000
 Traceless Quadrupole moment (field-independent basis, Debye-Ang):
   XX=             -2.6364   YY=              2.0951   ZZ=              0.5413
   XY=             -1.6917   XZ=              0.0000   YZ=              0.0000
 Octapole moment (field-independent basis, Debye-Ang**2):
  XXX=             -5.3702  YYY=             -0.6307  ZZZ=             -0.0003  XYY=              2.5544
  XXY=              0.9695  XXZ=             -0.0000  XZZ=             -1.3984  YZZ=              2.2684
  YYZ=             -0.0000  XYZ=             -0.0000
 Hexadecapole moment (field-independent basis, Debye-Ang**3):
 XXXX=           -235.2460 YYYY=            -91.3571 ZZZZ=            -18.8567 XXXY=              1.2269
 XXXZ=              0.0014 YYYX=             -0.3192 YYYZ=              0.0006 ZZZX=              0.0012
 ZZZY=              0.0007 XXYY=            -52.0916 XXZZ=            -40.0426 YYZZ=            -20.2163
 XXYZ=              0.0002 YYXZ=              0.0004 ZZXY=              1.3872
 N-N= 1.727346864791D+02 E-N=-1.237242471833D+03  KE= 3.735338495100D+02
 No NMR shielding tensors so no spin-rotation constants.
 Leave Link  601 at Thu Jul 10 14:15:34 2025, MaxMem=  2684354560 cpu:               4.5 elap:               0.3
 (Enter /apps/gaussian/g16c01/g16/l9999.exe)
 Unable to Open any file for archive entry.
 1\1\GINC-GADI-CPU-CLX-1716\SP\RM052X\6-31G(d)\C2H1F3\YR9300\10-Jul-202
 5\0\\#P M052X/6-31G* scrf(SMD,solvent=n-octanol)\\H1F3_oct_M05-2x\\0,1
 \C,0,0.745098,-0.647513,0.000011\C,0,-0.428468,-0.042632,0.000021\H,0,
 0.872123,-1.719777,0.000013\F,0,1.882491,0.079156,-0.000032\F,0,-0.609
 423,1.267461,-0.000013\F,0,-1.581057,-0.695435,0.000022\\Version=ES64L
 -G16RevC.01\State=1-A\HF=-376.2372009\RMSD=3.033e-09\Dipole=-0.0126532
 ,-0.6476784,0.0000185\Quadrupole=-1.9601289,1.5576489,0.4024799,-1.257
 7527,0.0000348,0.0000099\PG=C01 [X(C2H1F3)]\\@
 The archive entry for this job was punched.


 SOME PEOPLE TRY TO PULL THE WOOL OVER YOUR EYES
 USING THE WRONG YARN.
 Job cpu time:       0 days  0 hours  1 minutes 13.6 seconds.
 Elapsed time:       0 days  0 hours  0 minutes  4.1 seconds.
 File lengths (MBytes):  RWF=     14 Int=      0 D2E=      0 Chk=      2 Scr=      1
 Normal termination of Gaussian 16 at Thu Jul 10 14:15:34 2025.
