 Entering Gaussian System, Link 0=g16
 Initial command:
 /apps/gaussian/g16c01/g16/l1.exe "/jobfs/145008320.gadi-pbs/Gau-1648134.inp" -scrdir="/jobfs/145008320.gadi-pbs/"
 Entering Link 1 = /apps/gaussian/g16c01/g16/l1.exe PID=   1648135.
  
 Copyright (c) 1988-2019, Gaussian, Inc.  All Rights Reserved.
  
 This is part of the Gaussian(R) 16 program.  It is based on
 the Gaussian(R) 09 system (copyright 2009, Gaussian, Inc.),
 the Gaussian(R) 03 system (copyright 2003, Gaussian, Inc.),
 the Gaussian(R) 98 system (copyright 1998, Gaussian, Inc.),
 the Gaussian(R) 94 system (copyright 1995, Gaussian, Inc.),
 the Gaussian 92(TM) system (copyright 1992, Gaussian, Inc.),
 the Gaussian 90(TM) system (copyright 1990, Gaussian, Inc.),
 the Gaussian 88(TM) system (copyright 1988, Gaussian, Inc.),
 the Gaussian 86(TM) system (copyright 1986, Carnegie Mellon
 University), and the Gaussian 82(TM) system (copyright 1983,
 Carnegie Mellon University). Gaussian is a federally registered
 trademark of Gaussian, Inc.
  
 This software contains proprietary and confidential information,
 including trade secrets, belonging to Gaussian, Inc.
  
 This software is provided under written license and may be
 used, copied, transmitted, or stored only in accord with that
 written license.
  
 The following legend is applicable only to US Government
 contracts under FAR:
  
                    RESTRICTED RIGHTS LEGEND
  
 Use, reproduction and disclosure by the US Government is
 subject to restrictions as set forth in subparagraphs (a)
 and (c) of the Commercial Computer Software - Restricted
 Rights clause in FAR 52.227-19.
  
 Gaussian, Inc.
 340 Quinnipiac St., Bldg. 40, Wallingford CT 06492
  
  
 ---------------------------------------------------------------
 Warning -- This program may not be used in any manner that
 competes with the business of Gaussian, Inc. or will provide
 assistance to any competitor of Gaussian, Inc.  The licensee
 of this program is prohibited from giving any competitor of
 Gaussian, Inc. access to this program.  By using this program,
 the user acknowledges that Gaussian, Inc. is engaged in the
 business of creating and licensing software in the field of
 computational chemistry and represents and warrants to the
 licensee that it is not a competitor of Gaussian, Inc. and that
 it will not use this program in any manner prohibited above.
 ---------------------------------------------------------------
  

 Cite this work as:
 Gaussian 16, Revision C.01,
 M. J. Frisch, G. W. Trucks, H. B. Schlegel, G. E. Scuseria, 
 M. A. Robb, J. R. Cheeseman, G. Scalmani, V. Barone, 
 G. A. Petersson, H. Nakatsuji, X. Li, M. Caricato, A. V. Marenich, 
 J. Bloino, B. G. Janesko, R. Gomperts, B. Mennucci, H. P. Hratchian, 
 J. V. Ortiz, A. F. Izmaylov, J. L. Sonnenberg, D. Williams-Young, 
 F. Ding, F. Lipparini, F. Egidi, J. Goings, B. Peng, A. Petrone, 
 T. Henderson, D. Ranasinghe, V. G. Zakrzewski, J. Gao, N. Rega, 
 G. Zheng, W. Liang, M. Hada, M. Ehara, K. Toyota, R. Fukuda, 
 J. Hasegawa, M. Ishida, T. Nakajima, Y. Honda, O. Kitao, H. Nakai, 
 T. Vreven, K. Throssell, J. A. Montgomery, Jr., J. E. Peralta, 
 F. Ogliaro, M. J. Bearpark, J. J. Heyd, E. N. Brothers, K. N. Kudin, 
 V. N. Staroverov, T. A. Keith, R. Kobayashi, J. Normand, 
 K. Raghavachari, A. P. Rendell, J. C. Burant, S. S. Iyengar, 
 J. Tomasi, M. Cossi, J. M. Millam, M. Klene, C. Adamo, R. Cammi, 
 J. W. Ochterski, R. L. Martin, K. Morokuma, O. Farkas, 
 J. B. Foresman, and D. J. Fox, Gaussian, Inc., Wallingford CT, 2019.
 
 ******************************************
 Gaussian 16:  ES64L-G16RevC.01  3-Jul-2019
                10-Jul-2025 
 ******************************************
 %chk=Cl1F3_wat_M05-2x.chk
 %mem=20GB
 %nprocshared=20
 Will use up to   20 processors via shared memory.
 ---------------------------------------
 #P M052X/6-31G* scrf(SMD,solvent=water)
 ---------------------------------------
 1/38=1,172=1/1;
 2/12=2,17=6,18=5,40=1/2;
 3/5=1,6=6,7=1,11=2,25=1,30=1,70=32201,72=1,74=-38/1,2,3;
 4//1;
 5/5=2,38=5,53=1/2;
 6/7=2,8=2,9=2,10=2,28=1/1;
 99/5=1,9=1/99;
 Leave Link    1 at Thu Jul 10 14:45:17 2025, MaxMem=  2684354560 cpu:               0.9 elap:               0.1
 (Enter /apps/gaussian/g16c01/g16/l101.exe)
 ----------------
 Cl1F3_wat_M05-2x
 ----------------
 Symbolic Z-matrix:
 Charge =  0 Multiplicity = 1
 C                     0.24818   0.39928   0.00015 
 C                    -0.93602  -0.1927    0.00009 
 Cl                    1.7455   -0.44443  -0.00028 
 F                     0.34351   1.73155   0.00033 
 F                    -2.07613   0.46857  -0.00039 
 F                    -1.10588  -1.49837   0.00043 
 
 ITRead=  0  0  0  0  0  0
 MicOpt= -1 -1 -1 -1 -1 -1
 NAtoms=      6 NQM=        6 NQMF=       0 NMMI=      0 NMMIF=      0
                NMic=       0 NMicF=      0.
                    Isotopes and Nuclear Properties:
 (Nuclear quadrupole moments (NQMom) in fm**2, nuclear magnetic moments (NMagM)
  in nuclear magnetons)

  Atom         1           2           3           4           5           6
 IAtWgt=          12          12          35          19          19          19
 AtmWgt=  12.0000000  12.0000000  34.9688527  18.9984033  18.9984033  18.9984033
 NucSpn=           0           0           3           1           1           1
 AtZEff=  -0.0000000  -0.0000000  -0.0000000  -0.0000000  -0.0000000  -0.0000000
 NQMom=    0.0000000   0.0000000  -8.1650000   0.0000000   0.0000000   0.0000000
 NMagM=    0.0000000   0.0000000   0.8218740   2.6288670   2.6288670   2.6288670
 AtZNuc=   6.0000000   6.0000000  17.0000000   9.0000000   9.0000000   9.0000000
 Leave Link  101 at Thu Jul 10 14:45:17 2025, MaxMem=  2684354560 cpu:               3.5 elap:               0.2
 (Enter /apps/gaussian/g16c01/g16/l202.exe)
                          Input orientation:                          
 ---------------------------------------------------------------------
 Center     Atomic      Atomic             Coordinates (Angstroms)
 Number     Number       Type             X           Y           Z
 ---------------------------------------------------------------------
      1          6           0        0.248181    0.399281    0.000149
      2          6           0       -0.936015   -0.192698    0.000093
      3         17           0        1.745502   -0.444429   -0.000280
      4          9           0        0.343508    1.731550    0.000327
      5          9           0       -2.076130    0.468571   -0.000385
      6          9           0       -1.105880   -1.498366    0.000427
 ---------------------------------------------------------------------
                    Distance matrix (angstroms):
                    1          2          3          4          5
     1  C    0.000000
     2  C    1.323918   0.000000
     3  Cl   1.718667   2.693307   0.000000
     4  F    1.335675   2.310824   2.588527   0.000000
     5  F    2.325344   1.318006   3.929178   2.729426   0.000000
     6  F    2.331211   1.316671   3.039928   3.540209   2.193223
                    6
     6  F    0.000000
 Stoichiometry    C2ClF3
 Framework group  C1[X(C2ClF3)]
 Deg. of freedom    12
 Full point group                 C1      NOp   1
 Largest Abelian subgroup         C1      NOp   1
 Largest concise Abelian subgroup C1      NOp   1
                         Standard orientation:                         
 ---------------------------------------------------------------------
 Center     Atomic      Atomic             Coordinates (Angstroms)
 Number     Number       Type             X           Y           Z
 ---------------------------------------------------------------------
      1          6           0        0.248181    0.399281    0.000149
      2          6           0       -0.936015   -0.192698    0.000093
      3         17           0        1.745502   -0.444429   -0.000280
      4          9           0        0.343508    1.731550    0.000327
      5          9           0       -2.076130    0.468571   -0.000385
      6          9           0       -1.105880   -1.498366    0.000427
 ---------------------------------------------------------------------
 Rotational constants (GHZ):           4.4704268           2.2446173           1.4943160
 Leave Link  202 at Thu Jul 10 14:45:18 2025, MaxMem=  2684354560 cpu:               1.2 elap:               0.1
 (Enter /apps/gaussian/g16c01/g16/l301.exe)
 Standard basis: 6-31G(d) (6D, 7F)
 Ernie: Thresh=  0.10000D-02 Tol=  0.10000D-05 Strict=F.
 There are    94 symmetry adapted cartesian basis functions of A   symmetry.
 There are    94 symmetry adapted basis functions of A   symmetry.
    94 basis functions,   192 primitive gaussians,    94 cartesian basis functions
    28 alpha electrons       28 beta electrons
       nuclear repulsion energy       293.3992067925 Hartrees.
 IExCor= 3428 DFT=T Ex+Corr=M052X ExCW=0 ScaHFX=  0.560000
 ScaDFX=  0.440000  0.440000  1.000000  1.000000 ScalE2=  1.000000  1.000000
 IRadAn=      5 IRanWt=     -1 IRanGd=            0 ICorTp=0 IEmpDi=  4
 NAtoms=    6 NActive=    6 NUniq=    6 SFac= 1.00D+00 NAtFMM=   60 NAOKFM=F Big=F
 Integral buffers will be    131072 words long.
 Raffenetti 2 integral format.
 Two-electron integral symmetry is turned on.
 ------------------------------------------------------------------------------
 Polarizable Continuum Model (PCM)
 =================================
 Model                : PCM.
 Atomic radii         : SMD-Coulomb.
 Polarization charges : Total charges.
 Charge compensation  : None.
 Solution method      : On-the-fly selection.
 Cavity type          : VdW (van der Waals Surface) (Alpha=1.000).
 Cavity algorithm     : GePol (No added spheres)
                        Default sphere list used, NSphG=    6.
                        Lebedev-Laikov grids with approx.  5.0 points / Ang**2.
                        Smoothing algorithm: York/Karplus (Gamma=1.0000).
                        Polarization charges: spherical gaussians, with
                                              point-specific exponents (IZeta= 3).
                        Self-potential: point-specific (ISelfS= 7).
                        Self-field    : sphere-specific E.n sum rule (ISelfD= 2).
 Solvent              : Water, Eps=  78.355300 Eps(inf)=   1.777849
 ------------------------------------------------------------------------------
 Spheres list:
 ISph  on   Nord     Re0    Alpha      Xe            Ye            Ze
    1   C      1    1.8500  1.000      0.248181      0.399281      0.000149
    2   C      2    1.8500  1.000     -0.936015     -0.192698      0.000093
    3  Cl      3    2.3800  1.000      1.745502     -0.444429     -0.000280
    4   F      4    1.7300  1.000      0.343508      1.731550      0.000327
    5   F      5    1.7300  1.000     -2.076130      0.468571     -0.000385
    6   F      6    1.7300  1.000     -1.105880     -1.498366      0.000427
 ------------------------------------------------------------------------------
 GePol: Number of generator spheres                  =       6
 GePol: Total number of spheres                      =       6
 GePol: Number of exposed spheres                    =       6 (100.00%)
 GePol: Number of points                             =     823
 GePol: Average weight of points                     =       0.15
 GePol: Minimum weight of points                     =   0.21D-05
 GePol: Maximum weight of points                     =    0.21501
 GePol: Number of points with low weight             =      19
 GePol: Fraction of low-weight points (<1% of avg)   =       2.31%
 GePol: Cavity surface area                          =    126.806 Ang**2
 GePol: Cavity volume                                =    109.624 Ang**3
 ------------------------------------------------------------------------------
 Atomic radii for non-electrostatic terms: SMD-CDS.
 ------------------------------------------------------------------------------
 PCM non-electrostatic energy =         0.0071177107 Hartrees.
 Nuclear repulsion after PCM non-electrostatic terms =      293.4063245033 Hartrees.
 Leave Link  301 at Thu Jul 10 14:45:18 2025, MaxMem=  2684354560 cpu:               2.3 elap:               0.1
 (Enter /apps/gaussian/g16c01/g16/l302.exe)
 NPDir=0 NMtPBC=     1 NCelOv=     1 NCel=       1 NClECP=     1 NCelD=      1
         NCelK=      1 NCelE2=     1 NClLst=     1 CellRange=     0.0.
 One-electron integrals computed using PRISM.
 One-electron integral symmetry used in STVInt
 NBasis=    94 RedAO= T EigKep=  2.39D-03  NBF=    94
 NBsUse=    94 1.00D-06 EigRej= -1.00D+00 NBFU=    94
 Precomputing XC quadrature grid using
 IXCGrd= 4 IRadAn=           5 IRanWt=          -1 IRanGd=           0 AccXCQ= 0.00D+00.
 Generated NRdTot=       0 NPtTot=           0 NUsed=           0 NTot=          32
 NSgBfM=    94    94    94    94    94 MxSgAt=     6 MxSgA2=     6.
 Leave Link  302 at Thu Jul 10 14:45:18 2025, MaxMem=  2684354560 cpu:               3.2 elap:               0.2
 (Enter /apps/gaussian/g16c01/g16/l303.exe)
 DipDrv:  MaxL=1.
 Leave Link  303 at Thu Jul 10 14:45:18 2025, MaxMem=  2684354560 cpu:               1.6 elap:               0.1
 (Enter /apps/gaussian/g16c01/g16/l401.exe)
 ExpMin= 1.43D-01 ExpMax= 2.52D+04 ExpMxC= 3.78D+03 IAcc=3 IRadAn=         5 AccDes= 0.00D+00
 Harris functional with IExCor= 1009 and IRadAn=       5 diagonalized for initial guess.
 HarFok:  IExCor= 1009 AccDes= 0.00D+00 IRadAn=         5 IDoV= 1 UseB2=F ITyADJ=14
 ICtDFT=  3500011 ScaDFX=  1.000000  1.000000  1.000000  1.000000
 FoFCou: FMM=F IPFlag=           0 FMFlag=      100000 FMFlg1=           0
         NFxFlg=           0 DoJE=T BraDBF=F KetDBF=T FulRan=T
         wScrn=  0.000000 ICntrl=       500 IOpCl=  0 I1Cent=   200000004 NGrid=           0
         NMat0=    1 NMatS0=      1 NMatT0=    0 NMatD0=    1 NMtDS0=    0 NMtDT0=    0
 Petite list used in FoFCou.
 Harris En= -835.221142456646    
 JPrj=0 DoOrth=F DoCkMO=F.
 Leave Link  401 at Thu Jul 10 14:45:18 2025, MaxMem=  2684354560 cpu:               4.3 elap:               0.3
 (Enter /apps/gaussian/g16c01/g16/l502.exe)
 Keep R1 ints in memory in canonical form, NReq=28350926.
 FoFCou: FMM=F IPFlag=           0 FMFlag=           0 FMFlg1=           0
         NFxFlg=           0 DoJE=F BraDBF=F KetDBF=F FulRan=T
         wScrn=  0.000000 ICntrl=       600 IOpCl=  0 I1Cent=           0 NGrid=           0
         NMat0=    1 NMatS0=   4465 NMatT0=    0 NMatD0=    1 NMtDS0=    0 NMtDT0=    0
 Symmetry not used in FoFCou.
 Two-electron integral symmetry not used.
 Closed shell SCF:
 Using DIIS extrapolation, IDIIS=  1040.
 NGot=  2684354560 LenX=  2674363502 LenY=  2674354225
 Requested convergence on RMS density matrix=1.00D-08 within 128 cycles.
 Requested convergence on MAX density matrix=1.00D-06.
 Requested convergence on             energy=1.00D-06.
 No special actions if energy rises.

 Cycle   1  Pass 1  IDiag  1:
 Inv3:  Mode=1 IEnd=     2031987.
 Iteration    1 A*A^-1 deviation from unit magnitude is 2.89D-15 for    310.
 Iteration    1 A*A^-1 deviation from orthogonality  is 1.45D-15 for    813    670.
 Iteration    1 A^-1*A deviation from unit magnitude is 2.66D-15 for    788.
 Iteration    1 A^-1*A deviation from orthogonality  is 3.17D-14 for    806    610.
 E= -835.765708433992    
 DIIS: error= 3.24D-02 at cycle   1 NSaved=   1.
 NSaved= 1 IEnMin= 1 EnMin= -835.765708433992     IErMin= 1 ErrMin= 3.24D-02
 ErrMax= 3.24D-02  0.00D+00 EMaxC= 1.00D-01 BMatC= 7.04D-02 BMatP= 7.04D-02
 IDIUse=3 WtCom= 6.76D-01 WtEn= 3.24D-01
 Coeff-Com:  0.100D+01
 Coeff-En:   0.100D+01
 Coeff:      0.100D+01
 Gap=     0.390 Goal=   None    Shift=    0.000
 GapD=    0.390 DampG=1.000 DampE=0.500 DampFc=0.5000 IDamp=-1.
 Damping current iteration by 5.00D-01
 RMSDP=3.12D-03 MaxDP=8.51D-02              OVMax= 5.10D-02

 Cycle   2  Pass 1  IDiag  1:
 E= -835.783034087597     Delta-E=       -0.017325653605 Rises=F Damp=T
 DIIS: error= 1.25D-02 at cycle   2 NSaved=   2.
 NSaved= 2 IEnMin= 2 EnMin= -835.783034087597     IErMin= 2 ErrMin= 1.25D-02
 ErrMax= 1.25D-02  0.00D+00 EMaxC= 1.00D-01 BMatC= 9.67D-03 BMatP= 7.04D-02
 IDIUse=3 WtCom= 8.75D-01 WtEn= 1.25D-01
 Coeff-Com: -0.272D+00 0.127D+01
 Coeff-En:   0.000D+00 0.100D+01
 Coeff:     -0.238D+00 0.124D+01
 Gap=     0.387 Goal=   None    Shift=    0.000
 RMSDP=9.51D-04 MaxDP=1.11D-02 DE=-1.73D-02 OVMax= 3.08D-02

 Cycle   3  Pass 1  IDiag  1:
 E= -835.798569696779     Delta-E=       -0.015535609182 Rises=F Damp=F
 DIIS: error= 3.69D-03 at cycle   3 NSaved=   3.
 NSaved= 3 IEnMin= 3 EnMin= -835.798569696779     IErMin= 3 ErrMin= 3.69D-03
 ErrMax= 3.69D-03  0.00D+00 EMaxC= 1.00D-01 BMatC= 2.21D-03 BMatP= 9.67D-03
 IDIUse=3 WtCom= 9.63D-01 WtEn= 3.69D-02
 Coeff-Com: -0.196D+00 0.460D+00 0.736D+00
 Coeff-En:   0.000D+00 0.000D+00 0.100D+01
 Coeff:     -0.188D+00 0.443D+00 0.745D+00
 Gap=     0.380 Goal=   None    Shift=    0.000
 RMSDP=3.44D-04 MaxDP=7.62D-03 DE=-1.55D-02 OVMax= 6.99D-03

 Cycle   4  Pass 1  IDiag  1:
 E= -835.799795018808     Delta-E=       -0.001225322029 Rises=F Damp=F
 DIIS: error= 9.15D-04 at cycle   4 NSaved=   4.
 NSaved= 4 IEnMin= 4 EnMin= -835.799795018808     IErMin= 4 ErrMin= 9.15D-04
 ErrMax= 9.15D-04  0.00D+00 EMaxC= 1.00D-01 BMatC= 1.33D-04 BMatP= 2.21D-03
 IDIUse=3 WtCom= 9.91D-01 WtEn= 9.15D-03
 Coeff-Com: -0.640D-01 0.131D+00 0.304D+00 0.629D+00
 Coeff-En:   0.000D+00 0.000D+00 0.000D+00 0.100D+01
 Coeff:     -0.634D-01 0.129D+00 0.301D+00 0.633D+00
 Gap=     0.381 Goal=   None    Shift=    0.000
 RMSDP=1.34D-04 MaxDP=3.62D-03 DE=-1.23D-03 OVMax= 2.51D-03

 Cycle   5  Pass 1  IDiag  1:
 E= -835.799909289402     Delta-E=       -0.000114270594 Rises=F Damp=F
 DIIS: error= 1.97D-04 at cycle   5 NSaved=   5.
 NSaved= 5 IEnMin= 5 EnMin= -835.799909289402     IErMin= 5 ErrMin= 1.97D-04
 ErrMax= 1.97D-04  0.00D+00 EMaxC= 1.00D-01 BMatC= 4.32D-06 BMatP= 1.33D-04
 IDIUse=3 WtCom= 9.98D-01 WtEn= 1.97D-03
 Coeff-Com: -0.467D-02 0.600D-02 0.266D-01 0.179D+00 0.793D+00
 Coeff-En:   0.000D+00 0.000D+00 0.000D+00 0.000D+00 0.100D+01
 Coeff:     -0.466D-02 0.599D-02 0.266D-01 0.178D+00 0.794D+00
 Gap=     0.381 Goal=   None    Shift=    0.000
 RMSDP=2.77D-05 MaxDP=7.31D-04 DE=-1.14D-04 OVMax= 5.88D-04

 Cycle   6  Pass 1  IDiag  1:
 E= -835.799913099384     Delta-E=       -0.000003809982 Rises=F Damp=F
 DIIS: error= 4.36D-05 at cycle   6 NSaved=   6.
 NSaved= 6 IEnMin= 6 EnMin= -835.799913099384     IErMin= 6 ErrMin= 4.36D-05
 ErrMax= 4.36D-05  0.00D+00 EMaxC= 1.00D-01 BMatC= 3.07D-07 BMatP= 4.32D-06
 IDIUse=1 WtCom= 1.00D+00 WtEn= 0.00D+00
 Coeff-Com:  0.194D-02-0.514D-02-0.975D-02 0.263D-01 0.234D+00 0.753D+00
 Coeff:      0.194D-02-0.514D-02-0.975D-02 0.263D-01 0.234D+00 0.753D+00
 Gap=     0.381 Goal=   None    Shift=    0.000
 RMSDP=7.97D-06 MaxDP=1.98D-04 DE=-3.81D-06 OVMax= 2.35D-04

 Cycle   7  Pass 1  IDiag  1:
 E= -835.799913352752     Delta-E=       -0.000000253368 Rises=F Damp=F
 DIIS: error= 2.12D-05 at cycle   7 NSaved=   7.
 NSaved= 7 IEnMin= 7 EnMin= -835.799913352752     IErMin= 7 ErrMin= 2.12D-05
 ErrMax= 2.12D-05  0.00D+00 EMaxC= 1.00D-01 BMatC= 6.42D-08 BMatP= 3.07D-07
 IDIUse=1 WtCom= 1.00D+00 WtEn= 0.00D+00
 Coeff-Com:  0.137D-02-0.273D-02-0.812D-02-0.147D-01-0.291D-01 0.332D+00
 Coeff-Com:  0.721D+00
 Coeff:      0.137D-02-0.273D-02-0.812D-02-0.147D-01-0.291D-01 0.332D+00
 Coeff:      0.721D+00
 Gap=     0.381 Goal=   None    Shift=    0.000
 RMSDP=2.95D-06 MaxDP=9.22D-05 DE=-2.53D-07 OVMax= 1.48D-04

 Cycle   8  Pass 1  IDiag  1:
 E= -835.799913421012     Delta-E=       -0.000000068260 Rises=F Damp=F
 DIIS: error= 1.89D-06 at cycle   8 NSaved=   8.
 NSaved= 8 IEnMin= 8 EnMin= -835.799913421012     IErMin= 8 ErrMin= 1.89D-06
 ErrMax= 1.89D-06  0.00D+00 EMaxC= 1.00D-01 BMatC= 8.63D-10 BMatP= 6.42D-08
 IDIUse=1 WtCom= 1.00D+00 WtEn= 0.00D+00
 Coeff-Com:  0.108D-03-0.178D-03-0.758D-03-0.298D-02-0.105D-01 0.110D-01
 Coeff-Com:  0.113D+00 0.890D+00
 Coeff:      0.108D-03-0.178D-03-0.758D-03-0.298D-02-0.105D-01 0.110D-01
 Coeff:      0.113D+00 0.890D+00
 Gap=     0.381 Goal=   None    Shift=    0.000
 RMSDP=4.53D-07 MaxDP=5.97D-06 DE=-6.83D-08 OVMax= 9.02D-06

 Cycle   9  Pass 1  IDiag  1:
 E= -835.799913421983     Delta-E=       -0.000000000971 Rises=F Damp=F
 DIIS: error= 5.39D-07 at cycle   9 NSaved=   9.
 NSaved= 9 IEnMin= 9 EnMin= -835.799913421983     IErMin= 9 ErrMin= 5.39D-07
 ErrMax= 5.39D-07  0.00D+00 EMaxC= 1.00D-01 BMatC= 5.62D-11 BMatP= 8.63D-10
 IDIUse=1 WtCom= 1.00D+00 WtEn= 0.00D+00
 Coeff-Com: -0.698D-04 0.149D-03 0.419D-03 0.429D-03 0.917D-03-0.223D-01
 Coeff-Com: -0.229D-01 0.114D+00 0.930D+00
 Coeff:     -0.698D-04 0.149D-03 0.419D-03 0.429D-03 0.917D-03-0.223D-01
 Coeff:     -0.229D-01 0.114D+00 0.930D+00
 Gap=     0.381 Goal=   None    Shift=    0.000
 RMSDP=1.49D-07 MaxDP=3.49D-06 DE=-9.71D-10 OVMax= 3.70D-06

 Cycle  10  Pass 1  IDiag  1:
 E= -835.799913422053     Delta-E=       -0.000000000070 Rises=F Damp=F
 DIIS: error= 2.46D-07 at cycle  10 NSaved=  10.
 NSaved=10 IEnMin=10 EnMin= -835.799913422053     IErMin=10 ErrMin= 2.46D-07
 ErrMax= 2.46D-07  0.00D+00 EMaxC= 1.00D-01 BMatC= 1.07D-11 BMatP= 5.62D-11
 IDIUse=1 WtCom= 1.00D+00 WtEn= 0.00D+00
 Coeff-Com: -0.344D-04 0.695D-04 0.219D-03 0.384D-03 0.114D-02-0.991D-02
 Coeff-Com: -0.151D-01-0.132D-01 0.384D+00 0.652D+00
 Coeff:     -0.344D-04 0.695D-04 0.219D-03 0.384D-03 0.114D-02-0.991D-02
 Coeff:     -0.151D-01-0.132D-01 0.384D+00 0.652D+00
 Gap=     0.381 Goal=   None    Shift=    0.000
 RMSDP=3.96D-08 MaxDP=7.22D-07 DE=-6.98D-11 OVMax= 7.09D-07

 Cycle  11  Pass 1  IDiag  1:
 E= -835.799913422061     Delta-E=       -0.000000000008 Rises=F Damp=F
 DIIS: error= 5.42D-08 at cycle  11 NSaved=  11.
 NSaved=11 IEnMin=11 EnMin= -835.799913422061     IErMin=11 ErrMin= 5.42D-08
 ErrMax= 5.42D-08  0.00D+00 EMaxC= 1.00D-01 BMatC= 7.60D-13 BMatP= 1.07D-11
 IDIUse=1 WtCom= 1.00D+00 WtEn= 0.00D+00
 Coeff-Com: -0.123D-05 0.131D-05 0.138D-04 0.640D-04 0.227D-03-0.564D-03
 Coeff-Com: -0.146D-02-0.202D-01 0.162D-01 0.219D+00 0.787D+00
 Coeff:     -0.123D-05 0.131D-05 0.138D-04 0.640D-04 0.227D-03-0.564D-03
 Coeff:     -0.146D-02-0.202D-01 0.162D-01 0.219D+00 0.787D+00
 Gap=     0.381 Goal=   None    Shift=    0.000
 RMSDP=1.20D-08 MaxDP=1.91D-07 DE=-8.41D-12 OVMax= 2.99D-07

 Cycle  12  Pass 1  IDiag  1:
 E= -835.799913422064     Delta-E=       -0.000000000002 Rises=F Damp=F
 DIIS: error= 8.13D-09 at cycle  12 NSaved=  12.
 NSaved=12 IEnMin=12 EnMin= -835.799913422064     IErMin=12 ErrMin= 8.13D-09
 ErrMax= 8.13D-09  0.00D+00 EMaxC= 1.00D-01 BMatC= 2.32D-14 BMatP= 7.60D-13
 IDIUse=1 WtCom= 1.00D+00 WtEn= 0.00D+00
 Coeff-Com:  0.180D-05-0.368D-05-0.974D-05-0.974D-05-0.244D-04 0.433D-03
 Coeff-Com:  0.725D-03-0.370D-02-0.177D-01-0.188D-03 0.120D+00 0.901D+00
 Coeff:      0.180D-05-0.368D-05-0.974D-05-0.974D-05-0.244D-04 0.433D-03
 Coeff:      0.725D-03-0.370D-02-0.177D-01-0.188D-03 0.120D+00 0.901D+00
 Gap=     0.381 Goal=   None    Shift=    0.000
 RMSDP=3.51D-09 MaxDP=7.89D-08 DE=-2.27D-12 OVMax= 9.04D-08

 Error on total polarization charges =  0.00357
 SCF Done:  E(RM052X) =  -835.799913422     A.U. after   12 cycles
            NFock= 12  Conv=0.35D-08     -V/T= 2.0049
 KE= 8.317285413084D+02 PE=-2.570063368353D+03 EE= 6.091285891191D+02
 SMD-CDS (non-electrostatic) energy       (kcal/mol) =       4.47
 (included in total energy above)
 Leave Link  502 at Thu Jul 10 14:45:22 2025, MaxMem=  2684354560 cpu:              69.1 elap:               3.7
 (Enter /apps/gaussian/g16c01/g16/l601.exe)
 Copying SCF densities to generalized density rwf, IOpCl= 0 IROHF=0.

 **********************************************************************

            Population analysis using the SCF Density.

 **********************************************************************

 Orbital symmetries:
       Occupied  (A) (A) (A) (A) (A) (A) (A) (A) (A) (A) (A) (A)
                 (A) (A) (A) (A) (A) (A) (A) (A) (A) (A) (A) (A)
                 (A) (A) (A) (A)
       Virtual   (A) (A) (A) (A) (A) (A) (A) (A) (A) (A) (A) (A)
                 (A) (A) (A) (A) (A) (A) (A) (A) (A) (A) (A) (A)
                 (A) (A) (A) (A) (A) (A) (A) (A) (A) (A) (A) (A)
                 (A) (A) (A) (A) (A) (A) (A) (A) (A) (A) (A) (A)
                 (A) (A) (A) (A) (A) (A) (A) (A) (A) (A) (A) (A)
                 (A) (A) (A) (A) (A) (A)
 The electronic state is 1-A.
 Alpha  occ. eigenvalues -- -102.80365 -25.36409 -25.36183 -25.34899 -10.77443
 Alpha  occ. eigenvalues --  -10.73452  -9.84906  -7.57545  -7.56879  -7.56854
 Alpha  occ. eigenvalues --   -1.44490  -1.39557  -1.38093  -1.00981  -0.89031
 Alpha  occ. eigenvalues --   -0.75048  -0.69702  -0.68297  -0.64782  -0.60320
 Alpha  occ. eigenvalues --   -0.58838  -0.56981  -0.56109  -0.54110  -0.50063
 Alpha  occ. eigenvalues --   -0.44308  -0.41822  -0.31509
 Alpha virt. eigenvalues --    0.06578   0.06656   0.13390   0.20599   0.30859
 Alpha virt. eigenvalues --    0.40683   0.41987   0.47606   0.47959   0.52120
 Alpha virt. eigenvalues --    0.55063   0.57056   0.60022   0.63821   0.65770
 Alpha virt. eigenvalues --    0.71372   0.89068   0.89580   0.90659   0.92586
 Alpha virt. eigenvalues --    1.01632   1.07094   1.12545   1.16779   1.19129
 Alpha virt. eigenvalues --    1.22173   1.26148   1.32125   1.40235   1.41545
 Alpha virt. eigenvalues --    1.42520   1.44015   1.45681   1.50666   1.61371
 Alpha virt. eigenvalues --    1.65445   1.73102   1.81050   1.81443   1.87785
 Alpha virt. eigenvalues --    1.88993   1.90008   1.95842   1.99508   2.01179
 Alpha virt. eigenvalues --    2.03552   2.05452   2.10992   2.14108   2.25984
 Alpha virt. eigenvalues --    2.38553   2.40621   2.56837   2.61442   2.69469
 Alpha virt. eigenvalues --    2.82266   3.03395   3.07592   3.17180   3.25840
 Alpha virt. eigenvalues --    4.05287   4.18270   4.35883   4.43575   4.91324
 Alpha virt. eigenvalues --    5.54224
          Condensed to atoms (all electrons):
               1          2          3          4          5          6
     1  C    5.088948   0.427006   0.251726   0.263009  -0.056989  -0.062271
     2  C    0.427006   4.460839  -0.076743  -0.040425   0.322333   0.330971
     3  Cl   0.251726  -0.076743  16.791483  -0.037256   0.001402   0.005411
     4  F    0.263009  -0.040425  -0.037256   9.069420  -0.000069   0.000248
     5  F   -0.056989   0.322333   0.001402  -0.000069   9.010068  -0.037913
     6  F   -0.062271   0.330971   0.005411   0.000248  -0.037913   8.998363
 Mulliken charges:
               1
     1  C    0.088571
     2  C    0.576019
     3  Cl   0.063977
     4  F   -0.254927
     5  F   -0.238831
     6  F   -0.234809
 Sum of Mulliken charges =  -0.00000
 Mulliken charges with hydrogens summed into heavy atoms:
               1
     1  C    0.088571
     2  C    0.576019
     3  Cl   0.063977
     4  F   -0.254927
     5  F   -0.238831
     6  F   -0.234809
 Electronic spatial extent (au):  <R**2>=            663.3563
 Charge=             -0.0000 electrons
 Dipole moment (field-independent basis, Debye):
    X=             -0.0823    Y=             -0.4126    Z=             -0.0001  Tot=              0.4208
 Quadrupole moment (field-independent basis, Debye-Ang):
   XX=            -37.9044   YY=            -39.4098   ZZ=            -36.8683
   XY=             -0.5887   XZ=             -0.0007   YZ=              0.0003
 Traceless Quadrupole moment (field-independent basis, Debye-Ang):
   XX=              0.1564   YY=             -1.3489   ZZ=              1.1925
   XY=             -0.5887   XZ=             -0.0007   YZ=              0.0003
 Octapole moment (field-independent basis, Debye-Ang**2):
  XXX=             -8.6967  YYY=              2.0006  ZZZ=              0.0016  XYY=             -3.7953
  XXY=             -1.4711  XXZ=             -0.0002  XZZ=             -6.1762  YZZ=              1.2716
  YYZ=             -0.0008  XYZ=              0.0000
 Hexadecapole moment (field-independent basis, Debye-Ang**3):
 XXXX=           -435.1387 YYYY=           -207.2783 ZZZZ=            -31.5417 XXXY=             -0.1849
 XXXZ=              0.0055 YYYX=              3.0935 YYYZ=             -0.0019 ZZZX=              0.0133
 ZZZY=             -0.0019 XXYY=           -106.3150 XXZZ=            -79.6088 YYZZ=            -38.9080
 XXYZ=              0.0023 YYXZ=              0.0038 ZZXY=              2.7735
 N-N= 2.934063245033D+02 E-N=-2.570063366477D+03  KE= 8.317285413084D+02
 No NMR shielding tensors so no spin-rotation constants.
 Leave Link  601 at Thu Jul 10 14:45:22 2025, MaxMem=  2684354560 cpu:               3.4 elap:               0.2
 (Enter /apps/gaussian/g16c01/g16/l9999.exe)
 Unable to Open any file for archive entry.
 1\1\GINC-GADI-CPU-CLX-0170\SP\RM052X\6-31G(d)\C2Cl1F3\YR9300\10-Jul-20
 25\0\\#P M052X/6-31G* scrf(SMD,solvent=water)\\Cl1F3_wat_M05-2x\\0,1\C
 ,0,0.248181,0.399281,0.000149\C,0,-0.936015,-0.192698,0.000093\Cl,0,1.
 745502,-0.444429,-0.00028\F,0,0.343508,1.73155,0.000327\F,0,-2.07613,0
 .468571,-0.000385\F,0,-1.10588,-1.498366,0.000427\\Version=ES64L-G16Re
 vC.01\State=1-A\HF=-835.7999134\RMSD=3.511e-09\Dipole=-0.0323622,-0.16
 23429,-0.0000291\Quadrupole=0.1162704,-1.0028985,0.8866281,-0.4376829,
 -0.0005224,0.0002511\PG=C01 [X(C2Cl1F3)]\\@
 The archive entry for this job was punched.


 MUD THROWN IS GROUND LOST -- FROM A TEA BAG
 Job cpu time:       0 days  0 hours  1 minutes 30.8 seconds.
 Elapsed time:       0 days  0 hours  0 minutes  5.0 seconds.
 File lengths (MBytes):  RWF=     18 Int=      0 D2E=      0 Chk=      2 Scr=      1
 Normal termination of Gaussian 16 at Thu Jul 10 14:45:22 2025.
