 Entering Gaussian System, Link 0=g16
 Initial command:
 /apps/gaussian/g16c01/g16/l1.exe "/jobfs/145004935.gadi-pbs/Gau-930116.inp" -scrdir="/jobfs/145004935.gadi-pbs/"
 Entering Link 1 = /apps/gaussian/g16c01/g16/l1.exe PID=    930117.
  
 Copyright (c) 1988-2019, Gaussian, Inc.  All Rights Reserved.
  
 This is part of the Gaussian(R) 16 program.  It is based on
 the Gaussian(R) 09 system (copyright 2009, Gaussian, Inc.),
 the Gaussian(R) 03 system (copyright 2003, Gaussian, Inc.),
 the Gaussian(R) 98 system (copyright 1998, Gaussian, Inc.),
 the Gaussian(R) 94 system (copyright 1995, Gaussian, Inc.),
 the Gaussian 92(TM) system (copyright 1992, Gaussian, Inc.),
 the Gaussian 90(TM) system (copyright 1990, Gaussian, Inc.),
 the Gaussian 88(TM) system (copyright 1988, Gaussian, Inc.),
 the Gaussian 86(TM) system (copyright 1986, Carnegie Mellon
 University), and the Gaussian 82(TM) system (copyright 1983,
 Carnegie Mellon University). Gaussian is a federally registered
 trademark of Gaussian, Inc.
  
 This software contains proprietary and confidential information,
 including trade secrets, belonging to Gaussian, Inc.
  
 This software is provided under written license and may be
 used, copied, transmitted, or stored only in accord with that
 written license.
  
 The following legend is applicable only to US Government
 contracts under FAR:
  
                    RESTRICTED RIGHTS LEGEND
  
 Use, reproduction and disclosure by the US Government is
 subject to restrictions as set forth in subparagraphs (a)
 and (c) of the Commercial Computer Software - Restricted
 Rights clause in FAR 52.227-19.
  
 Gaussian, Inc.
 340 Quinnipiac St., Bldg. 40, Wallingford CT 06492
  
  
 ---------------------------------------------------------------
 Warning -- This program may not be used in any manner that
 competes with the business of Gaussian, Inc. or will provide
 assistance to any competitor of Gaussian, Inc.  The licensee
 of this program is prohibited from giving any competitor of
 Gaussian, Inc. access to this program.  By using this program,
 the user acknowledges that Gaussian, Inc. is engaged in the
 business of creating and licensing software in the field of
 computational chemistry and represents and warrants to the
 licensee that it is not a competitor of Gaussian, Inc. and that
 it will not use this program in any manner prohibited above.
 ---------------------------------------------------------------
  

 Cite this work as:
 Gaussian 16, Revision C.01,
 M. J. Frisch, G. W. Trucks, H. B. Schlegel, G. E. Scuseria, 
 M. A. Robb, J. R. Cheeseman, G. Scalmani, V. Barone, 
 G. A. Petersson, H. Nakatsuji, X. Li, M. Caricato, A. V. Marenich, 
 J. Bloino, B. G. Janesko, R. Gomperts, B. Mennucci, H. P. Hratchian, 
 J. V. Ortiz, A. F. Izmaylov, J. L. Sonnenberg, D. Williams-Young, 
 F. Ding, F. Lipparini, F. Egidi, J. Goings, B. Peng, A. Petrone, 
 T. Henderson, D. Ranasinghe, V. G. Zakrzewski, J. Gao, N. Rega, 
 G. Zheng, W. Liang, M. Hada, M. Ehara, K. Toyota, R. Fukuda, 
 J. Hasegawa, M. Ishida, T. Nakajima, Y. Honda, O. Kitao, H. Nakai, 
 T. Vreven, K. Throssell, J. A. Montgomery, Jr., J. E. Peralta, 
 F. Ogliaro, M. J. Bearpark, J. J. Heyd, E. N. Brothers, K. N. Kudin, 
 V. N. Staroverov, T. A. Keith, R. Kobayashi, J. Normand, 
 K. Raghavachari, A. P. Rendell, J. C. Burant, S. S. Iyengar, 
 J. Tomasi, M. Cossi, J. M. Millam, M. Klene, C. Adamo, R. Cammi, 
 J. W. Ochterski, R. L. Martin, K. Morokuma, O. Farkas, 
 J. B. Foresman, and D. J. Fox, Gaussian, Inc., Wallingford CT, 2019.
 
 ******************************************
 Gaussian 16:  ES64L-G16RevC.01  3-Jul-2019
                10-Jul-2025 
 ******************************************
 %chk=Cl1F3_oct_M05-2x.chk
 %mem=20GB
 %nprocshared=20
 Will use up to   20 processors via shared memory.
 -------------------------------------------
 #P M052X/6-31G* scrf(SMD,solvent=n-octanol)
 -------------------------------------------
 1/38=1,172=1/1;
 2/12=2,17=6,18=5,40=1/2;
 3/5=1,6=6,7=1,11=2,25=1,30=1,70=32201,72=25,74=-38/1,2,3;
 4//1;
 5/5=2,38=5,53=25/2;
 6/7=2,8=2,9=2,10=2,28=1/1;
 99/5=1,9=1/99;
 Leave Link    1 at Thu Jul 10 13:50:54 2025, MaxMem=  2684354560 cpu:               0.9 elap:               0.1
 (Enter /apps/gaussian/g16c01/g16/l101.exe)
 ----------------
 Cl1F3_oct_M05-2x
 ----------------
 Symbolic Z-matrix:
 Charge =  0 Multiplicity = 1
 C                     0.24831   0.39879   0.0001 
 C                    -0.93639  -0.19281   0.00016 
 Cl                    1.74642  -0.44463  -0.00012 
 F                     0.34376   1.73134   0.00011 
 F                    -2.07599   0.46952  -0.00021 
 F                    -1.10783  -1.49834   0.00016 
 
 ITRead=  0  0  0  0  0  0
 MicOpt= -1 -1 -1 -1 -1 -1
 NAtoms=      6 NQM=        6 NQMF=       0 NMMI=      0 NMMIF=      0
                NMic=       0 NMicF=      0.
                    Isotopes and Nuclear Properties:
 (Nuclear quadrupole moments (NQMom) in fm**2, nuclear magnetic moments (NMagM)
  in nuclear magnetons)

  Atom         1           2           3           4           5           6
 IAtWgt=          12          12          35          19          19          19
 AtmWgt=  12.0000000  12.0000000  34.9688527  18.9984033  18.9984033  18.9984033
 NucSpn=           0           0           3           1           1           1
 AtZEff=  -0.0000000  -0.0000000  -0.0000000  -0.0000000  -0.0000000  -0.0000000
 NQMom=    0.0000000   0.0000000  -8.1650000   0.0000000   0.0000000   0.0000000
 NMagM=    0.0000000   0.0000000   0.8218740   2.6288670   2.6288670   2.6288670
 AtZNuc=   6.0000000   6.0000000  17.0000000   9.0000000   9.0000000   9.0000000
 Leave Link  101 at Thu Jul 10 13:50:55 2025, MaxMem=  2684354560 cpu:               5.6 elap:               0.4
 (Enter /apps/gaussian/g16c01/g16/l202.exe)
                          Input orientation:                          
 ---------------------------------------------------------------------
 Center     Atomic      Atomic             Coordinates (Angstroms)
 Number     Number       Type             X           Y           Z
 ---------------------------------------------------------------------
      1          6           0        0.248307    0.398793    0.000102
      2          6           0       -0.936388   -0.192806    0.000162
      3         17           0        1.746416   -0.444626   -0.000123
      4          9           0        0.343760    1.731341    0.000109
      5          9           0       -2.075993    0.469523   -0.000212
      6          9           0       -1.107832   -1.498340    0.000159
 ---------------------------------------------------------------------
                    Distance matrix (angstroms):
                    1          2          3          4          5
     1  C    0.000000
     2  C    1.324195   0.000000
     3  Cl   1.719211   2.694597   0.000000
     4  F    1.335962   2.311086   2.588875   0.000000
     5  F    2.325376   1.318097   3.930201   2.728991   0.000000
     6  F    2.332001   1.316743   3.042539   3.540898   2.193130
                    6
     6  F    0.000000
 Stoichiometry    C2ClF3
 Framework group  C1[X(C2ClF3)]
 Deg. of freedom    12
 Full point group                 C1      NOp   1
 Largest Abelian subgroup         C1      NOp   1
 Largest concise Abelian subgroup C1      NOp   1
                         Standard orientation:                         
 ---------------------------------------------------------------------
 Center     Atomic      Atomic             Coordinates (Angstroms)
 Number     Number       Type             X           Y           Z
 ---------------------------------------------------------------------
      1          6           0        0.248307    0.398793    0.000102
      2          6           0       -0.936388   -0.192806    0.000162
      3         17           0        1.746416   -0.444626   -0.000123
      4          9           0        0.343760    1.731341    0.000109
      5          9           0       -2.075993    0.469523   -0.000212
      6          9           0       -1.107832   -1.498340    0.000159
 ---------------------------------------------------------------------
 Rotational constants (GHZ):           4.4702815           2.2426720           1.4934373
 Leave Link  202 at Thu Jul 10 13:50:55 2025, MaxMem=  2684354560 cpu:               2.6 elap:               0.4
 (Enter /apps/gaussian/g16c01/g16/l301.exe)
 Standard basis: 6-31G(d) (6D, 7F)
 Ernie: Thresh=  0.10000D-02 Tol=  0.10000D-05 Strict=F.
 There are    94 symmetry adapted cartesian basis functions of A   symmetry.
 There are    94 symmetry adapted basis functions of A   symmetry.
    94 basis functions,   192 primitive gaussians,    94 cartesian basis functions
    28 alpha electrons       28 beta electrons
       nuclear repulsion energy       293.3322182294 Hartrees.
 IExCor= 3428 DFT=T Ex+Corr=M052X ExCW=0 ScaHFX=  0.560000
 ScaDFX=  0.440000  0.440000  1.000000  1.000000 ScalE2=  1.000000  1.000000
 IRadAn=      5 IRanWt=     -1 IRanGd=            0 ICorTp=0 IEmpDi=  4
 NAtoms=    6 NActive=    6 NUniq=    6 SFac= 1.00D+00 NAtFMM=   60 NAOKFM=F Big=F
 Integral buffers will be    131072 words long.
 Raffenetti 2 integral format.
 Two-electron integral symmetry is turned on.
 ------------------------------------------------------------------------------
 Polarizable Continuum Model (PCM)
 =================================
 Model                : PCM.
 Atomic radii         : SMD-Coulomb.
 Polarization charges : Total charges.
 Charge compensation  : None.
 Solution method      : On-the-fly selection.
 Cavity type          : VdW (van der Waals Surface) (Alpha=1.000).
 Cavity algorithm     : GePol (No added spheres)
                        Default sphere list used, NSphG=    6.
                        Lebedev-Laikov grids with approx.  5.0 points / Ang**2.
                        Smoothing algorithm: York/Karplus (Gamma=1.0000).
                        Polarization charges: spherical gaussians, with
                                              point-specific exponents (IZeta= 3).
                        Self-potential: point-specific (ISelfS= 7).
                        Self-field    : sphere-specific E.n sum rule (ISelfD= 2).
 Solvent              : n-Octanol, Eps=   9.862900 Eps(inf)=   2.043470
 ------------------------------------------------------------------------------
 Spheres list:
 ISph  on   Nord     Re0    Alpha      Xe            Ye            Ze
    1   C      1    1.8500  1.000      0.248307      0.398793      0.000102
    2   C      2    1.8500  1.000     -0.936388     -0.192806      0.000162
    3  Cl      3    2.3800  1.000      1.746416     -0.444626     -0.000123
    4   F      4    1.7300  1.000      0.343760      1.731341      0.000109
    5   F      5    1.7300  1.000     -2.075993      0.469523     -0.000212
    6   F      6    1.7300  1.000     -1.107832     -1.498340      0.000159
 ------------------------------------------------------------------------------
 GePol: Number of generator spheres                  =       6
 GePol: Total number of spheres                      =       6
 GePol: Number of exposed spheres                    =       6 (100.00%)
 GePol: Number of points                             =     823
 GePol: Average weight of points                     =       0.15
 GePol: Minimum weight of points                     =   0.39D-05
 GePol: Maximum weight of points                     =    0.21501
 GePol: Number of points with low weight             =      19
 GePol: Fraction of low-weight points (<1% of avg)   =       2.31%
 GePol: Cavity surface area                          =    126.833 Ang**2
 GePol: Cavity volume                                =    109.645 Ang**3
 ------------------------------------------------------------------------------
 Atomic radii for non-electrostatic terms: SMD-CDS.
 ------------------------------------------------------------------------------
 PCM non-electrostatic energy =         0.0021440185 Hartrees.
 Nuclear repulsion after PCM non-electrostatic terms =      293.3343622479 Hartrees.
 Leave Link  301 at Thu Jul 10 13:50:55 2025, MaxMem=  2684354560 cpu:               1.8 elap:               0.2
 (Enter /apps/gaussian/g16c01/g16/l302.exe)
 NPDir=0 NMtPBC=     1 NCelOv=     1 NCel=       1 NClECP=     1 NCelD=      1
         NCelK=      1 NCelE2=     1 NClLst=     1 CellRange=     0.0.
 One-electron integrals computed using PRISM.
 One-electron integral symmetry used in STVInt
 NBasis=    94 RedAO= T EigKep=  2.39D-03  NBF=    94
 NBsUse=    94 1.00D-06 EigRej= -1.00D+00 NBFU=    94
 Precomputing XC quadrature grid using
 IXCGrd= 4 IRadAn=           5 IRanWt=          -1 IRanGd=           0 AccXCQ= 0.00D+00.
 Generated NRdTot=       0 NPtTot=           0 NUsed=           0 NTot=          32
 NSgBfM=    94    94    94    94    94 MxSgAt=     6 MxSgA2=     6.
 Leave Link  302 at Thu Jul 10 13:50:56 2025, MaxMem=  2684354560 cpu:              12.0 elap:               0.7
 (Enter /apps/gaussian/g16c01/g16/l303.exe)
 DipDrv:  MaxL=1.
 Leave Link  303 at Thu Jul 10 13:50:56 2025, MaxMem=  2684354560 cpu:               3.4 elap:               0.4
 (Enter /apps/gaussian/g16c01/g16/l401.exe)
 ExpMin= 1.43D-01 ExpMax= 2.52D+04 ExpMxC= 3.78D+03 IAcc=3 IRadAn=         5 AccDes= 0.00D+00
 Harris functional with IExCor= 1009 and IRadAn=       5 diagonalized for initial guess.
 HarFok:  IExCor= 1009 AccDes= 0.00D+00 IRadAn=         5 IDoV= 1 UseB2=F ITyADJ=14
 ICtDFT=  3500011 ScaDFX=  1.000000  1.000000  1.000000  1.000000
 FoFCou: FMM=F IPFlag=           0 FMFlag=      100000 FMFlg1=           0
         NFxFlg=           0 DoJE=T BraDBF=F KetDBF=T FulRan=T
         wScrn=  0.000000 ICntrl=       500 IOpCl=  0 I1Cent=   200000004 NGrid=           0
         NMat0=    1 NMatS0=      1 NMatT0=    0 NMatD0=    1 NMtDS0=    0 NMtDT0=    0
 Petite list used in FoFCou.
 Harris En= -835.226125823483    
 JPrj=0 DoOrth=F DoCkMO=F.
 Leave Link  401 at Thu Jul 10 13:50:57 2025, MaxMem=  2684354560 cpu:               9.9 elap:               0.8
 (Enter /apps/gaussian/g16c01/g16/l502.exe)
 Keep R1 ints in memory in canonical form, NReq=28350926.
 FoFCou: FMM=F IPFlag=           0 FMFlag=           0 FMFlg1=           0
         NFxFlg=           0 DoJE=F BraDBF=F KetDBF=F FulRan=T
         wScrn=  0.000000 ICntrl=       600 IOpCl=  0 I1Cent=           0 NGrid=           0
         NMat0=    1 NMatS0=   4465 NMatT0=    0 NMatD0=    1 NMtDS0=    0 NMtDT0=    0
 Symmetry not used in FoFCou.
 Two-electron integral symmetry not used.
 Closed shell SCF:
 Using DIIS extrapolation, IDIIS=  1040.
 NGot=  2684354560 LenX=  2674363502 LenY=  2674354225
 Requested convergence on RMS density matrix=1.00D-08 within 128 cycles.
 Requested convergence on MAX density matrix=1.00D-06.
 Requested convergence on             energy=1.00D-06.
 No special actions if energy rises.

 Cycle   1  Pass 1  IDiag  1:
 Inv3:  Mode=1 IEnd=     2031987.
 Iteration    1 A*A^-1 deviation from unit magnitude is 2.89D-15 for    782.
 Iteration    1 A*A^-1 deviation from orthogonality  is 1.89D-15 for    361    137.
 Iteration    1 A^-1*A deviation from unit magnitude is 2.89D-15 for    782.
 Iteration    1 A^-1*A deviation from orthogonality  is 1.22D-15 for    822    675.
 E= -835.770336123112    
 DIIS: error= 3.24D-02 at cycle   1 NSaved=   1.
 NSaved= 1 IEnMin= 1 EnMin= -835.770336123112     IErMin= 1 ErrMin= 3.24D-02
 ErrMax= 3.24D-02  0.00D+00 EMaxC= 1.00D-01 BMatC= 7.05D-02 BMatP= 7.05D-02
 IDIUse=3 WtCom= 6.76D-01 WtEn= 3.24D-01
 Coeff-Com:  0.100D+01
 Coeff-En:   0.100D+01
 Coeff:      0.100D+01
 Gap=     0.390 Goal=   None    Shift=    0.000
 GapD=    0.390 DampG=1.000 DampE=0.500 DampFc=0.5000 IDamp=-1.
 Damping current iteration by 5.00D-01
 RMSDP=3.13D-03 MaxDP=8.52D-02              OVMax= 5.11D-02

 Cycle   2  Pass 1  IDiag  1:
 E= -835.787676598966     Delta-E=       -0.017340475854 Rises=F Damp=T
 DIIS: error= 1.25D-02 at cycle   2 NSaved=   2.
 NSaved= 2 IEnMin= 2 EnMin= -835.787676598966     IErMin= 2 ErrMin= 1.25D-02
 ErrMax= 1.25D-02  0.00D+00 EMaxC= 1.00D-01 BMatC= 9.67D-03 BMatP= 7.05D-02
 IDIUse=3 WtCom= 8.75D-01 WtEn= 1.25D-01
 Coeff-Com: -0.269D+00 0.127D+01
 Coeff-En:   0.000D+00 0.100D+01
 Coeff:     -0.235D+00 0.124D+01
 Gap=     0.387 Goal=   None    Shift=    0.000
 RMSDP=9.53D-04 MaxDP=1.10D-02 DE=-1.73D-02 OVMax= 3.12D-02

 Cycle   3  Pass 1  IDiag  1:
 E= -835.803244312547     Delta-E=       -0.015567713581 Rises=F Damp=F
 DIIS: error= 3.70D-03 at cycle   3 NSaved=   3.
 NSaved= 3 IEnMin= 3 EnMin= -835.803244312547     IErMin= 3 ErrMin= 3.70D-03
 ErrMax= 3.70D-03  0.00D+00 EMaxC= 1.00D-01 BMatC= 2.25D-03 BMatP= 9.67D-03
 IDIUse=3 WtCom= 9.63D-01 WtEn= 3.70D-02
 Coeff-Com: -0.196D+00 0.461D+00 0.735D+00
 Coeff-En:   0.000D+00 0.000D+00 0.100D+01
 Coeff:     -0.188D+00 0.444D+00 0.745D+00
 Gap=     0.379 Goal=   None    Shift=    0.000
 RMSDP=3.49D-04 MaxDP=7.71D-03 DE=-1.56D-02 OVMax= 7.06D-03

 Cycle   4  Pass 1  IDiag  1:
 E= -835.804490677905     Delta-E=       -0.001246365358 Rises=F Damp=F
 DIIS: error= 9.24D-04 at cycle   4 NSaved=   4.
 NSaved= 4 IEnMin= 4 EnMin= -835.804490677905     IErMin= 4 ErrMin= 9.24D-04
 ErrMax= 9.24D-04  0.00D+00 EMaxC= 1.00D-01 BMatC= 1.36D-04 BMatP= 2.25D-03
 IDIUse=3 WtCom= 9.91D-01 WtEn= 9.24D-03
 Coeff-Com: -0.645D-01 0.132D+00 0.305D+00 0.628D+00
 Coeff-En:   0.000D+00 0.000D+00 0.000D+00 0.100D+01
 Coeff:     -0.639D-01 0.131D+00 0.302D+00 0.631D+00
 Gap=     0.381 Goal=   None    Shift=    0.000
 RMSDP=1.36D-04 MaxDP=3.64D-03 DE=-1.25D-03 OVMax= 2.55D-03

 Cycle   5  Pass 1  IDiag  1:
 E= -835.804607180905     Delta-E=       -0.000116503000 Rises=F Damp=F
 DIIS: error= 2.00D-04 at cycle   5 NSaved=   5.
 NSaved= 5 IEnMin= 5 EnMin= -835.804607180905     IErMin= 5 ErrMin= 2.00D-04
 ErrMax= 2.00D-04  0.00D+00 EMaxC= 1.00D-01 BMatC= 4.43D-06 BMatP= 1.36D-04
 IDIUse=3 WtCom= 9.98D-01 WtEn= 2.00D-03
 Coeff-Com: -0.493D-02 0.650D-02 0.275D-01 0.180D+00 0.791D+00
 Coeff-En:   0.000D+00 0.000D+00 0.000D+00 0.000D+00 0.100D+01
 Coeff:     -0.492D-02 0.648D-02 0.275D-01 0.179D+00 0.792D+00
 Gap=     0.381 Goal=   None    Shift=    0.000
 RMSDP=2.83D-05 MaxDP=7.21D-04 DE=-1.17D-04 OVMax= 6.04D-04

 Cycle   6  Pass 1  IDiag  1:
 E= -835.804611073813     Delta-E=       -0.000003892908 Rises=F Damp=F
 DIIS: error= 4.44D-05 at cycle   6 NSaved=   6.
 NSaved= 6 IEnMin= 6 EnMin= -835.804611073813     IErMin= 6 ErrMin= 4.44D-05
 ErrMax= 4.44D-05  0.00D+00 EMaxC= 1.00D-01 BMatC= 3.08D-07 BMatP= 4.43D-06
 IDIUse=1 WtCom= 1.00D+00 WtEn= 0.00D+00
 Coeff-Com:  0.185D-02-0.495D-02-0.937D-02 0.266D-01 0.231D+00 0.755D+00
 Coeff:      0.185D-02-0.495D-02-0.937D-02 0.266D-01 0.231D+00 0.755D+00
 Gap=     0.381 Goal=   None    Shift=    0.000
 RMSDP=8.10D-06 MaxDP=2.04D-04 DE=-3.89D-06 OVMax= 2.46D-04

 Cycle   7  Pass 1  IDiag  1:
 E= -835.804611327270     Delta-E=       -0.000000253457 Rises=F Damp=F
 DIIS: error= 2.18D-05 at cycle   7 NSaved=   7.
 NSaved= 7 IEnMin= 7 EnMin= -835.804611327270     IErMin= 7 ErrMin= 2.18D-05
 ErrMax= 2.18D-05  0.00D+00 EMaxC= 1.00D-01 BMatC= 6.82D-08 BMatP= 3.08D-07
 IDIUse=1 WtCom= 1.00D+00 WtEn= 0.00D+00
 Coeff-Com:  0.139D-02-0.278D-02-0.824D-02-0.149D-01-0.291D-01 0.339D+00
 Coeff-Com:  0.715D+00
 Coeff:      0.139D-02-0.278D-02-0.824D-02-0.149D-01-0.291D-01 0.339D+00
 Coeff:      0.715D+00
 Gap=     0.381 Goal=   None    Shift=    0.000
 RMSDP=3.00D-06 MaxDP=9.36D-05 DE=-2.53D-07 OVMax= 1.48D-04

 Cycle   8  Pass 1  IDiag  1:
 E= -835.804611398906     Delta-E=       -0.000000071636 Rises=F Damp=F
 DIIS: error= 1.87D-06 at cycle   8 NSaved=   8.
 NSaved= 8 IEnMin= 8 EnMin= -835.804611398906     IErMin= 8 ErrMin= 1.87D-06
 ErrMax= 1.87D-06  0.00D+00 EMaxC= 1.00D-01 BMatC= 9.01D-10 BMatP= 6.82D-08
 IDIUse=1 WtCom= 1.00D+00 WtEn= 0.00D+00
 Coeff-Com:  0.134D-03-0.231D-03-0.914D-03-0.329D-02-0.113D-01 0.182D-01
 Coeff-Com:  0.122D+00 0.876D+00
 Coeff:      0.134D-03-0.231D-03-0.914D-03-0.329D-02-0.113D-01 0.182D-01
 Coeff:      0.122D+00 0.876D+00
 Gap=     0.381 Goal=   None    Shift=    0.000
 RMSDP=4.67D-07 MaxDP=6.33D-06 DE=-7.16D-08 OVMax= 9.42D-06

 Cycle   9  Pass 1  IDiag  1:
 E= -835.804611399919     Delta-E=       -0.000000001013 Rises=F Damp=F
 DIIS: error= 5.44D-07 at cycle   9 NSaved=   9.
 NSaved= 9 IEnMin= 9 EnMin= -835.804611399919     IErMin= 9 ErrMin= 5.44D-07
 ErrMax= 5.44D-07  0.00D+00 EMaxC= 1.00D-01 BMatC= 6.41D-11 BMatP= 9.01D-10
 IDIUse=1 WtCom= 1.00D+00 WtEn= 0.00D+00
 Coeff-Com: -0.672D-04 0.145D-03 0.398D-03 0.325D-03 0.563D-03-0.217D-01
 Coeff-Com: -0.212D-01 0.131D+00 0.911D+00
 Coeff:     -0.672D-04 0.145D-03 0.398D-03 0.325D-03 0.563D-03-0.217D-01
 Coeff:     -0.212D-01 0.131D+00 0.911D+00
 Gap=     0.381 Goal=   None    Shift=    0.000
 RMSDP=1.53D-07 MaxDP=3.50D-06 DE=-1.01D-09 OVMax= 3.85D-06

 Cycle  10  Pass 1  IDiag  1:
 E= -835.804611399994     Delta-E=       -0.000000000075 Rises=F Damp=F
 DIIS: error= 2.86D-07 at cycle  10 NSaved=  10.
 NSaved=10 IEnMin=10 EnMin= -835.804611399994     IErMin=10 ErrMin= 2.86D-07
 ErrMax= 2.86D-07  0.00D+00 EMaxC= 1.00D-01 BMatC= 1.40D-11 BMatP= 6.41D-11
 IDIUse=1 WtCom= 1.00D+00 WtEn= 0.00D+00
 Coeff-Com: -0.376D-04 0.766D-04 0.236D-03 0.397D-03 0.117D-02-0.106D-01
 Coeff-Com: -0.164D-01-0.970D-02 0.395D+00 0.640D+00
 Coeff:     -0.376D-04 0.766D-04 0.236D-03 0.397D-03 0.117D-02-0.106D-01
 Coeff:     -0.164D-01-0.970D-02 0.395D+00 0.640D+00
 Gap=     0.381 Goal=   None    Shift=    0.000
 RMSDP=4.44D-08 MaxDP=8.43D-07 DE=-7.46D-11 OVMax= 8.30D-07

 Cycle  11  Pass 1  IDiag  1:
 E= -835.804611400006     Delta-E=       -0.000000000013 Rises=F Damp=F
 DIIS: error= 5.13D-08 at cycle  11 NSaved=  11.
 NSaved=11 IEnMin=11 EnMin= -835.804611400006     IErMin=11 ErrMin= 5.13D-08
 ErrMax= 5.13D-08  0.00D+00 EMaxC= 1.00D-01 BMatC= 7.24D-13 BMatP= 1.40D-11
 IDIUse=1 WtCom= 1.00D+00 WtEn= 0.00D+00
 Coeff-Com: -0.199D-05 0.282D-05 0.182D-04 0.708D-04 0.250D-03-0.713D-03
 Coeff-Com: -0.185D-02-0.192D-01 0.177D-01 0.194D+00 0.810D+00
 Coeff:     -0.199D-05 0.282D-05 0.182D-04 0.708D-04 0.250D-03-0.713D-03
 Coeff:     -0.185D-02-0.192D-01 0.177D-01 0.194D+00 0.810D+00
 Gap=     0.381 Goal=   None    Shift=    0.000
 RMSDP=1.27D-08 MaxDP=2.23D-07 DE=-1.27D-11 OVMax= 3.39D-07

 Cycle  12  Pass 1  IDiag  1:
 E= -835.804611400005     Delta-E=        0.000000000002 Rises=F Damp=F
 DIIS: error= 8.58D-09 at cycle  12 NSaved=  12.
 NSaved=12 IEnMin=11 EnMin= -835.804611400006     IErMin=12 ErrMin= 8.58D-09
 ErrMax= 8.58D-09  0.00D+00 EMaxC= 1.00D-01 BMatC= 2.31D-14 BMatP= 7.24D-13
 IDIUse=1 WtCom= 1.00D+00 WtEn= 0.00D+00
 Coeff-Com:  0.174D-05-0.360D-05-0.922D-05-0.809D-05-0.194D-04 0.419D-03
 Coeff-Com:  0.648D-03-0.378D-02-0.172D-01 0.159D-03 0.126D+00 0.894D+00
 Coeff:      0.174D-05-0.360D-05-0.922D-05-0.809D-05-0.194D-04 0.419D-03
 Coeff:      0.648D-03-0.378D-02-0.172D-01 0.159D-03 0.126D+00 0.894D+00
 Gap=     0.381 Goal=   None    Shift=    0.000
 RMSDP=3.63D-09 MaxDP=8.37D-08 DE= 1.59D-12 OVMax= 1.01D-07

 Error on total polarization charges =  0.00373
 SCF Done:  E(RM052X) =  -835.804611400     A.U. after   12 cycles
            NFock= 12  Conv=0.36D-08     -V/T= 2.0049
 KE= 8.317262840871D+02 PE=-2.569934623945D+03 EE= 6.090693662101D+02
 SMD-CDS (non-electrostatic) energy       (kcal/mol) =       1.35
 (included in total energy above)
 Leave Link  502 at Thu Jul 10 13:51:03 2025, MaxMem=  2684354560 cpu:             100.9 elap:               6.1
 (Enter /apps/gaussian/g16c01/g16/l601.exe)
 Copying SCF densities to generalized density rwf, IOpCl= 0 IROHF=0.

 **********************************************************************

            Population analysis using the SCF Density.

 **********************************************************************

 Orbital symmetries:
       Occupied  (A) (A) (A) (A) (A) (A) (A) (A) (A) (A) (A) (A)
                 (A) (A) (A) (A) (A) (A) (A) (A) (A) (A) (A) (A)
                 (A) (A) (A) (A)
       Virtual   (A) (A) (A) (A) (A) (A) (A) (A) (A) (A) (A) (A)
                 (A) (A) (A) (A) (A) (A) (A) (A) (A) (A) (A) (A)
                 (A) (A) (A) (A) (A) (A) (A) (A) (A) (A) (A) (A)
                 (A) (A) (A) (A) (A) (A) (A) (A) (A) (A) (A) (A)
                 (A) (A) (A) (A) (A) (A) (A) (A) (A) (A) (A) (A)
                 (A) (A) (A) (A) (A) (A)
 The electronic state is 1-A.
 Alpha  occ. eigenvalues -- -102.80410 -25.36486 -25.36251 -25.34935 -10.77529
 Alpha  occ. eigenvalues --  -10.73550  -9.84950  -7.57590  -7.56922  -7.56898
 Alpha  occ. eigenvalues --   -1.44564  -1.39587  -1.38157  -1.01022  -0.89106
 Alpha  occ. eigenvalues --   -0.75105  -0.69749  -0.68341  -0.64866  -0.60353
 Alpha  occ. eigenvalues --   -0.58876  -0.57041  -0.56180  -0.54168  -0.50105
 Alpha  occ. eigenvalues --   -0.44350  -0.41853  -0.31599
 Alpha virt. eigenvalues --    0.06463   0.06567   0.13301   0.20482   0.30798
 Alpha virt. eigenvalues --    0.40601   0.41943   0.47560   0.47933   0.52029
 Alpha virt. eigenvalues --    0.54960   0.56914   0.59924   0.63707   0.65642
 Alpha virt. eigenvalues --    0.71303   0.88988   0.89539   0.90621   0.92533
 Alpha virt. eigenvalues --    1.01558   1.07039   1.12469   1.16736   1.19106
 Alpha virt. eigenvalues --    1.22087   1.26063   1.32084   1.40189   1.41494
 Alpha virt. eigenvalues --    1.42474   1.43948   1.45606   1.50640   1.61289
 Alpha virt. eigenvalues --    1.65359   1.72995   1.80992   1.81378   1.87719
 Alpha virt. eigenvalues --    1.88928   1.89958   1.95748   1.99406   2.01079
 Alpha virt. eigenvalues --    2.03482   2.05363   2.10891   2.14015   2.25892
 Alpha virt. eigenvalues --    2.38475   2.40488   2.56737   2.61346   2.69339
 Alpha virt. eigenvalues --    2.82145   3.03308   3.07499   3.17082   3.25738
 Alpha virt. eigenvalues --    4.05201   4.18163   4.35748   4.43455   4.91212
 Alpha virt. eigenvalues --    5.54016
          Condensed to atoms (all electrons):
               1          2          3          4          5          6
     1  C    5.090157   0.425812   0.252498   0.263094  -0.057100  -0.062298
     2  C    0.425812   4.466281  -0.076841  -0.040582   0.322095   0.330814
     3  Cl   0.252498  -0.076841  16.789320  -0.037259   0.001400   0.005384
     4  F    0.263094  -0.040582  -0.037259   9.068349  -0.000064   0.000248
     5  F   -0.057100   0.322095   0.001400  -0.000064   9.009647  -0.037988
     6  F   -0.062298   0.330814   0.005384   0.000248  -0.037988   8.997817
 Mulliken charges:
               1
     1  C    0.087837
     2  C    0.572420
     3  Cl   0.065498
     4  F   -0.253787
     5  F   -0.237991
     6  F   -0.233977
 Sum of Mulliken charges =  -0.00000
 Mulliken charges with hydrogens summed into heavy atoms:
               1
     1  C    0.087837
     2  C    0.572420
     3  Cl   0.065498
     4  F   -0.253787
     5  F   -0.237991
     6  F   -0.233977
 Electronic spatial extent (au):  <R**2>=            663.6586
 Charge=             -0.0000 electrons
 Dipole moment (field-independent basis, Debye):
    X=             -0.0673    Y=             -0.4077    Z=              0.0002  Tot=              0.4132
 Quadrupole moment (field-independent basis, Debye-Ang):
   XX=            -37.8727   YY=            -39.3799   ZZ=            -36.8760
   XY=             -0.5889   XZ=             -0.0006   YZ=              0.0001
 Traceless Quadrupole moment (field-independent basis, Debye-Ang):
   XX=              0.1702   YY=             -1.3370   ZZ=              1.1668
   XY=             -0.5889   XZ=             -0.0006   YZ=              0.0001
 Octapole moment (field-independent basis, Debye-Ang**2):
  XXX=             -8.6539  YYY=              2.0319  ZZZ=             -0.0004  XYY=             -3.7906
  XXY=             -1.4659  XXZ=             -0.0003  XZZ=             -6.1648  YZZ=              1.2743
  YYZ=             -0.0006  XYZ=              0.0002
 Hexadecapole moment (field-independent basis, Debye-Ang**3):
 XXXX=           -435.2088 YYYY=           -207.1124 ZZZZ=            -31.5576 XXXY=             -0.2229
 XXXZ=              0.0017 YYYX=              3.1342 YYYZ=              0.0000 ZZZX=              0.0059
 ZZZY=             -0.0002 XXYY=           -106.3346 XXZZ=            -79.6620 YYZZ=            -38.9052
 XXYZ=              0.0012 YYXZ=              0.0018 ZZXY=              2.7725
 N-N= 2.933343622479D+02 E-N=-2.569934622107D+03  KE= 8.317262840871D+02
 No NMR shielding tensors so no spin-rotation constants.
 Leave Link  601 at Thu Jul 10 13:51:05 2025, MaxMem=  2684354560 cpu:              12.5 elap:               1.4
 (Enter /apps/gaussian/g16c01/g16/l9999.exe)
 Unable to Open any file for archive entry.
 1\1\GINC-GADI-CPU-CLX-0143\SP\RM052X\6-31G(d)\C2Cl1F3\YR9300\10-Jul-20
 25\0\\#P M052X/6-31G* scrf(SMD,solvent=n-octanol)\\Cl1F3_oct_M05-2x\\0
 ,1\C,0,0.248307,0.398793,0.000102\C,0,-0.936388,-0.192806,0.000162\Cl,
 0,1.746416,-0.444626,-0.000123\F,0,0.34376,1.731341,0.000109\F,0,-2.07
 5993,0.469523,-0.000212\F,0,-1.107832,-1.49834,0.000159\\Version=ES64L
 -G16RevC.01\State=1-A\HF=-835.8046114\RMSD=3.628e-09\Dipole=-0.0264661
 ,-0.1603866,0.0000753\Quadrupole=0.1265375,-0.9940348,0.8674973,-0.437
 8313,-0.0004395,0.0001037\PG=C01 [X(C2Cl1F3)]\\@
 The archive entry for this job was punched.


 A MAN THINKING OR WORKING IS ALWAYS ALONE, 
 LET HIM BE WHERE HE WILL.

                                    -- THOREAU
 Job cpu time:       0 days  0 hours  2 minutes 31.1 seconds.
 Elapsed time:       0 days  0 hours  0 minutes 10.7 seconds.
 File lengths (MBytes):  RWF=     18 Int=      0 D2E=      0 Chk=      2 Scr=      1
 Normal termination of Gaussian 16 at Thu Jul 10 13:51:05 2025.
