 Entering Gaussian System, Link 0=g16
 Initial command:
 /apps/gaussian/g16c01/g16/l1.exe "/jobfs/145005003.gadi-pbs/Gau-1311623.inp" -scrdir="/jobfs/145005003.gadi-pbs/"
 Entering Link 1 = /apps/gaussian/g16c01/g16/l1.exe PID=   1311624.
  
 Copyright (c) 1988-2019, Gaussian, Inc.  All Rights Reserved.
  
 This is part of the Gaussian(R) 16 program.  It is based on
 the Gaussian(R) 09 system (copyright 2009, Gaussian, Inc.),
 the Gaussian(R) 03 system (copyright 2003, Gaussian, Inc.),
 the Gaussian(R) 98 system (copyright 1998, Gaussian, Inc.),
 the Gaussian(R) 94 system (copyright 1995, Gaussian, Inc.),
 the Gaussian 92(TM) system (copyright 1992, Gaussian, Inc.),
 the Gaussian 90(TM) system (copyright 1990, Gaussian, Inc.),
 the Gaussian 88(TM) system (copyright 1988, Gaussian, Inc.),
 the Gaussian 86(TM) system (copyright 1986, Carnegie Mellon
 University), and the Gaussian 82(TM) system (copyright 1983,
 Carnegie Mellon University). Gaussian is a federally registered
 trademark of Gaussian, Inc.
  
 This software contains proprietary and confidential information,
 including trade secrets, belonging to Gaussian, Inc.
  
 This software is provided under written license and may be
 used, copied, transmitted, or stored only in accord with that
 written license.
  
 The following legend is applicable only to US Government
 contracts under FAR:
  
                    RESTRICTED RIGHTS LEGEND
  
 Use, reproduction and disclosure by the US Government is
 subject to restrictions as set forth in subparagraphs (a)
 and (c) of the Commercial Computer Software - Restricted
 Rights clause in FAR 52.227-19.
  
 Gaussian, Inc.
 340 Quinnipiac St., Bldg. 40, Wallingford CT 06492
  
  
 ---------------------------------------------------------------
 Warning -- This program may not be used in any manner that
 competes with the business of Gaussian, Inc. or will provide
 assistance to any competitor of Gaussian, Inc.  The licensee
 of this program is prohibited from giving any competitor of
 Gaussian, Inc. access to this program.  By using this program,
 the user acknowledges that Gaussian, Inc. is engaged in the
 business of creating and licensing software in the field of
 computational chemistry and represents and warrants to the
 licensee that it is not a competitor of Gaussian, Inc. and that
 it will not use this program in any manner prohibited above.
 ---------------------------------------------------------------
  

 Cite this work as:
 Gaussian 16, Revision C.01,
 M. J. Frisch, G. W. Trucks, H. B. Schlegel, G. E. Scuseria, 
 M. A. Robb, J. R. Cheeseman, G. Scalmani, V. Barone, 
 G. A. Petersson, H. Nakatsuji, X. Li, M. Caricato, A. V. Marenich, 
 J. Bloino, B. G. Janesko, R. Gomperts, B. Mennucci, H. P. Hratchian, 
 J. V. Ortiz, A. F. Izmaylov, J. L. Sonnenberg, D. Williams-Young, 
 F. Ding, F. Lipparini, F. Egidi, J. Goings, B. Peng, A. Petrone, 
 T. Henderson, D. Ranasinghe, V. G. Zakrzewski, J. Gao, N. Rega, 
 G. Zheng, W. Liang, M. Hada, M. Ehara, K. Toyota, R. Fukuda, 
 J. Hasegawa, M. Ishida, T. Nakajima, Y. Honda, O. Kitao, H. Nakai, 
 T. Vreven, K. Throssell, J. A. Montgomery, Jr., J. E. Peralta, 
 F. Ogliaro, M. J. Bearpark, J. J. Heyd, E. N. Brothers, K. N. Kudin, 
 V. N. Staroverov, T. A. Keith, R. Kobayashi, J. Normand, 
 K. Raghavachari, A. P. Rendell, J. C. Burant, S. S. Iyengar, 
 J. Tomasi, M. Cossi, J. M. Millam, M. Klene, C. Adamo, R. Cammi, 
 J. W. Ochterski, R. L. Martin, K. Morokuma, O. Farkas, 
 J. B. Foresman, and D. J. Fox, Gaussian, Inc., Wallingford CT, 2019.
 
 ******************************************
 Gaussian 16:  ES64L-G16RevC.01  3-Jul-2019
                10-Jul-2025 
 ******************************************
 %chk=Cl1F3_oct_vaccum_M05-2x.chk
 %mem=20GB
 %nprocshared=20
 Will use up to   20 processors via shared memory.
 ---------------
 #P M052X/6-31G*
 ---------------
 1/38=1,172=1/1;
 2/12=2,17=6,18=5,40=1/2;
 3/5=1,6=6,7=1,11=2,25=1,30=1,74=-38/1,2,3;
 4//1;
 5/5=2,38=5/2;
 6/7=2,8=2,9=2,10=2,28=1/1;
 99/5=1,9=1/99;
 Leave Link    1 at Thu Jul 10 13:50:53 2025, MaxMem=  2684354560 cpu:               1.0 elap:               0.1
 (Enter /apps/gaussian/g16c01/g16/l101.exe)
 -----------------------
 Cl1F3_oct_vaccum_M05-2x
 -----------------------
 Symbolic Z-matrix:
 Charge =  0 Multiplicity = 1
 C                     0.24831   0.39879   0.0001 
 C                    -0.93639  -0.19281   0.00016 
 Cl                    1.74642  -0.44463  -0.00012 
 F                     0.34376   1.73134   0.00011 
 F                    -2.07599   0.46952  -0.00021 
 F                    -1.10783  -1.49834   0.00016 
 
 ITRead=  0  0  0  0  0  0
 MicOpt= -1 -1 -1 -1 -1 -1
 NAtoms=      6 NQM=        6 NQMF=       0 NMMI=      0 NMMIF=      0
                NMic=       0 NMicF=      0.
                    Isotopes and Nuclear Properties:
 (Nuclear quadrupole moments (NQMom) in fm**2, nuclear magnetic moments (NMagM)
  in nuclear magnetons)

  Atom         1           2           3           4           5           6
 IAtWgt=          12          12          35          19          19          19
 AtmWgt=  12.0000000  12.0000000  34.9688527  18.9984033  18.9984033  18.9984033
 NucSpn=           0           0           3           1           1           1
 AtZEff=  -0.0000000  -0.0000000  -0.0000000  -0.0000000  -0.0000000  -0.0000000
 NQMom=    0.0000000   0.0000000  -8.1650000   0.0000000   0.0000000   0.0000000
 NMagM=    0.0000000   0.0000000   0.8218740   2.6288670   2.6288670   2.6288670
 AtZNuc=   6.0000000   6.0000000  17.0000000   9.0000000   9.0000000   9.0000000
 Leave Link  101 at Thu Jul 10 13:50:54 2025, MaxMem=  2684354560 cpu:               3.1 elap:               0.2
 (Enter /apps/gaussian/g16c01/g16/l202.exe)
                          Input orientation:                          
 ---------------------------------------------------------------------
 Center     Atomic      Atomic             Coordinates (Angstroms)
 Number     Number       Type             X           Y           Z
 ---------------------------------------------------------------------
      1          6           0        0.248307    0.398793    0.000102
      2          6           0       -0.936388   -0.192806    0.000162
      3         17           0        1.746416   -0.444626   -0.000123
      4          9           0        0.343760    1.731341    0.000109
      5          9           0       -2.075993    0.469523   -0.000212
      6          9           0       -1.107832   -1.498340    0.000159
 ---------------------------------------------------------------------
                    Distance matrix (angstroms):
                    1          2          3          4          5
     1  C    0.000000
     2  C    1.324195   0.000000
     3  Cl   1.719211   2.694597   0.000000
     4  F    1.335962   2.311086   2.588875   0.000000
     5  F    2.325376   1.318097   3.930201   2.728991   0.000000
     6  F    2.332001   1.316743   3.042539   3.540898   2.193130
                    6
     6  F    0.000000
 Stoichiometry    C2ClF3
 Framework group  C1[X(C2ClF3)]
 Deg. of freedom    12
 Full point group                 C1      NOp   1
 Largest Abelian subgroup         C1      NOp   1
 Largest concise Abelian subgroup C1      NOp   1
                         Standard orientation:                         
 ---------------------------------------------------------------------
 Center     Atomic      Atomic             Coordinates (Angstroms)
 Number     Number       Type             X           Y           Z
 ---------------------------------------------------------------------
      1          6           0        0.248307    0.398793    0.000102
      2          6           0       -0.936388   -0.192806    0.000162
      3         17           0        1.746416   -0.444626   -0.000123
      4          9           0        0.343760    1.731341    0.000109
      5          9           0       -2.075993    0.469523   -0.000212
      6          9           0       -1.107832   -1.498340    0.000159
 ---------------------------------------------------------------------
 Rotational constants (GHZ):           4.4702815           2.2426720           1.4934373
 Leave Link  202 at Thu Jul 10 13:50:54 2025, MaxMem=  2684354560 cpu:               0.5 elap:               0.0
 (Enter /apps/gaussian/g16c01/g16/l301.exe)
 Standard basis: 6-31G(d) (6D, 7F)
 Ernie: Thresh=  0.10000D-02 Tol=  0.10000D-05 Strict=F.
 There are    94 symmetry adapted cartesian basis functions of A   symmetry.
 There are    94 symmetry adapted basis functions of A   symmetry.
    94 basis functions,   192 primitive gaussians,    94 cartesian basis functions
    28 alpha electrons       28 beta electrons
       nuclear repulsion energy       293.3322182294 Hartrees.
 IExCor= 3428 DFT=T Ex+Corr=M052X ExCW=0 ScaHFX=  0.560000
 ScaDFX=  0.440000  0.440000  1.000000  1.000000 ScalE2=  1.000000  1.000000
 IRadAn=      5 IRanWt=     -1 IRanGd=            0 ICorTp=0 IEmpDi=  4
 NAtoms=    6 NActive=    6 NUniq=    6 SFac= 1.00D+00 NAtFMM=   60 NAOKFM=F Big=F
 Integral buffers will be    131072 words long.
 Raffenetti 2 integral format.
 Two-electron integral symmetry is turned on.
 Leave Link  301 at Thu Jul 10 13:50:54 2025, MaxMem=  2684354560 cpu:               2.6 elap:               0.1
 (Enter /apps/gaussian/g16c01/g16/l302.exe)
 NPDir=0 NMtPBC=     1 NCelOv=     1 NCel=       1 NClECP=     1 NCelD=      1
         NCelK=      1 NCelE2=     1 NClLst=     1 CellRange=     0.0.
 One-electron integrals computed using PRISM.
 One-electron integral symmetry used in STVInt
 NBasis=    94 RedAO= T EigKep=  2.39D-03  NBF=    94
 NBsUse=    94 1.00D-06 EigRej= -1.00D+00 NBFU=    94
 Precomputing XC quadrature grid using
 IXCGrd= 4 IRadAn=           5 IRanWt=          -1 IRanGd=           0 AccXCQ= 0.00D+00.
 Generated NRdTot=       0 NPtTot=           0 NUsed=           0 NTot=          32
 NSgBfM=    94    94    94    94    94 MxSgAt=     6 MxSgA2=     6.
 Leave Link  302 at Thu Jul 10 13:50:54 2025, MaxMem=  2684354560 cpu:               3.4 elap:               0.2
 (Enter /apps/gaussian/g16c01/g16/l303.exe)
 DipDrv:  MaxL=1.
 Leave Link  303 at Thu Jul 10 13:50:54 2025, MaxMem=  2684354560 cpu:               1.0 elap:               0.1
 (Enter /apps/gaussian/g16c01/g16/l401.exe)
 ExpMin= 1.43D-01 ExpMax= 2.52D+04 ExpMxC= 3.78D+03 IAcc=3 IRadAn=         5 AccDes= 0.00D+00
 Harris functional with IExCor= 1009 and IRadAn=       5 diagonalized for initial guess.
 HarFok:  IExCor= 1009 AccDes= 0.00D+00 IRadAn=         5 IDoV= 1 UseB2=F ITyADJ=14
 ICtDFT=  3500011 ScaDFX=  1.000000  1.000000  1.000000  1.000000
 FoFCou: FMM=F IPFlag=           0 FMFlag=      100000 FMFlg1=           0
         NFxFlg=           0 DoJE=T BraDBF=F KetDBF=T FulRan=T
         wScrn=  0.000000 ICntrl=       500 IOpCl=  0 I1Cent=   200000004 NGrid=           0
         NMat0=    1 NMatS0=      1 NMatT0=    0 NMatD0=    1 NMtDS0=    0 NMtDT0=    0
 Petite list used in FoFCou.
 Harris En= -835.228269841968    
 JPrj=0 DoOrth=F DoCkMO=F.
 Leave Link  401 at Thu Jul 10 13:50:54 2025, MaxMem=  2684354560 cpu:               4.4 elap:               0.2
 (Enter /apps/gaussian/g16c01/g16/l502.exe)
 Keep R1 ints in memory in canonical form, NReq=28350926.
 FoFCou: FMM=F IPFlag=           0 FMFlag=           0 FMFlg1=           0
         NFxFlg=           0 DoJE=F BraDBF=F KetDBF=F FulRan=T
         wScrn=  0.000000 ICntrl=       600 IOpCl=  0 I1Cent=           0 NGrid=           0
         NMat0=    1 NMatS0=   4465 NMatT0=    0 NMatD0=    1 NMtDS0=    0 NMtDT0=    0
 Symmetry not used in FoFCou.
 Two-electron integral symmetry not used.
 Closed shell SCF:
 Using DIIS extrapolation, IDIIS=  1040.
 NGot=  2684354560 LenX=  2674363502 LenY=  2674354225
 Requested convergence on RMS density matrix=1.00D-08 within 128 cycles.
 Requested convergence on MAX density matrix=1.00D-06.
 Requested convergence on             energy=1.00D-06.
 No special actions if energy rises.
 Integral accuracy reduced to 1.0D-05 until final iterations.

 Cycle   1  Pass 0  IDiag  1:
 E= -835.770394985018    
 DIIS: error= 3.23D-02 at cycle   1 NSaved=   1.
 NSaved= 1 IEnMin= 1 EnMin= -835.770394985018     IErMin= 1 ErrMin= 3.23D-02
 ErrMax= 3.23D-02  0.00D+00 EMaxC= 1.00D-01 BMatC= 7.17D-02 BMatP= 7.17D-02
 IDIUse=3 WtCom= 6.77D-01 WtEn= 3.23D-01
 Coeff-Com:  0.100D+01
 Coeff-En:   0.100D+01
 Coeff:      0.100D+01
 Gap=     0.390 Goal=   None    Shift=    0.000
 GapD=    0.390 DampG=1.000 DampE=0.500 DampFc=0.5000 IDamp=-1.
 Damping current iteration by 5.00D-01
 RMSDP=3.20D-03 MaxDP=8.49D-02              OVMax= 5.28D-02

 Cycle   2  Pass 0  IDiag  1:
 E= -835.787885950465     Delta-E=       -0.017490965447 Rises=F Damp=T
 DIIS: error= 1.25D-02 at cycle   2 NSaved=   2.
 NSaved= 2 IEnMin= 2 EnMin= -835.787885950465     IErMin= 2 ErrMin= 1.25D-02
 ErrMax= 1.25D-02  0.00D+00 EMaxC= 1.00D-01 BMatC= 9.70D-03 BMatP= 7.17D-02
 IDIUse=3 WtCom= 8.75D-01 WtEn= 1.25D-01
 Coeff-Com: -0.249D+00 0.125D+01
 Coeff-En:   0.000D+00 0.100D+01
 Coeff:     -0.218D+00 0.122D+01
 Gap=     0.390 Goal=   None    Shift=    0.000
 RMSDP=9.88D-04 MaxDP=1.15D-02 DE=-1.75D-02 OVMax= 3.46D-02

 Cycle   3  Pass 0  IDiag  1:
 E= -835.803751012886     Delta-E=       -0.015865062421 Rises=F Damp=F
 DIIS: error= 4.06D-03 at cycle   3 NSaved=   3.
 NSaved= 3 IEnMin= 3 EnMin= -835.803751012886     IErMin= 3 ErrMin= 4.06D-03
 ErrMax= 4.06D-03  0.00D+00 EMaxC= 1.00D-01 BMatC= 2.49D-03 BMatP= 9.70D-03
 IDIUse=3 WtCom= 9.59D-01 WtEn= 4.06D-02
 Coeff-Com: -0.195D+00 0.465D+00 0.731D+00
 Coeff-En:   0.000D+00 0.000D+00 0.100D+01
 Coeff:     -0.188D+00 0.446D+00 0.742D+00
 Gap=     0.378 Goal=   None    Shift=    0.000
 RMSDP=3.77D-04 MaxDP=8.29D-03 DE=-1.59D-02 OVMax= 7.44D-03

 Cycle   4  Pass 0  IDiag  1:
 E= -835.805141328385     Delta-E=       -0.001390315498 Rises=F Damp=F
 DIIS: error= 9.78D-04 at cycle   4 NSaved=   4.
 NSaved= 4 IEnMin= 4 EnMin= -835.805141328385     IErMin= 4 ErrMin= 9.78D-04
 ErrMax= 9.78D-04  0.00D+00 EMaxC= 1.00D-01 BMatC= 1.55D-04 BMatP= 2.49D-03
 IDIUse=3 WtCom= 9.90D-01 WtEn= 9.78D-03
 Coeff-Com: -0.672D-01 0.139D+00 0.311D+00 0.617D+00
 Coeff-En:   0.000D+00 0.000D+00 0.000D+00 0.100D+01
 Coeff:     -0.665D-01 0.137D+00 0.308D+00 0.621D+00
 Gap=     0.380 Goal=   None    Shift=    0.000
 RMSDP=1.47D-04 MaxDP=3.60D-03 DE=-1.39D-03 OVMax= 2.81D-03

 Cycle   5  Pass 0  IDiag  1:
 E= -835.805272442703     Delta-E=       -0.000131114318 Rises=F Damp=F
 DIIS: error= 2.15D-04 at cycle   5 NSaved=   5.
 NSaved= 5 IEnMin= 5 EnMin= -835.805272442703     IErMin= 5 ErrMin= 2.15D-04
 ErrMax= 2.15D-04  0.00D+00 EMaxC= 1.00D-01 BMatC= 5.40D-06 BMatP= 1.55D-04
 IDIUse=3 WtCom= 9.98D-01 WtEn= 2.15D-03
 Coeff-Com: -0.612D-02 0.865D-02 0.323D-01 0.188D+00 0.777D+00
 Coeff-En:   0.000D+00 0.000D+00 0.000D+00 0.000D+00 0.100D+01
 Coeff:     -0.610D-02 0.863D-02 0.323D-01 0.188D+00 0.777D+00
 Gap=     0.380 Goal=   None    Shift=    0.000
 RMSDP=3.22D-05 MaxDP=6.80D-04 DE=-1.31D-04 OVMax= 6.84D-04

 Cycle   6  Pass 0  IDiag  1:
 E= -835.805277156889     Delta-E=       -0.000004714186 Rises=F Damp=F
 DIIS: error= 4.36D-05 at cycle   6 NSaved=   6.
 NSaved= 6 IEnMin= 6 EnMin= -835.805277156889     IErMin= 6 ErrMin= 4.36D-05
 ErrMax= 4.36D-05  0.00D+00 EMaxC= 1.00D-01 BMatC= 2.58D-07 BMatP= 5.40D-06
 IDIUse=1 WtCom= 1.00D+00 WtEn= 0.00D+00
 Coeff-Com:  0.173D-02-0.454D-02-0.918D-02 0.198D-01 0.175D+00 0.817D+00
 Coeff:      0.173D-02-0.454D-02-0.918D-02 0.198D-01 0.175D+00 0.817D+00
 Gap=     0.380 Goal=   None    Shift=    0.000
 RMSDP=8.73D-06 MaxDP=2.09D-04 DE=-4.71D-06 OVMax= 2.57D-04

 Initial convergence to 1.0D-05 achieved.  Increase integral accuracy.
 Cycle   7  Pass 1  IDiag  1:
 E= -835.805345713200     Delta-E=       -0.000068556311 Rises=F Damp=F
 DIIS: error= 7.50D-05 at cycle   1 NSaved=   1.
 NSaved= 1 IEnMin= 1 EnMin= -835.805345713200     IErMin= 1 ErrMin= 7.50D-05
 ErrMax= 7.50D-05  0.00D+00 EMaxC= 1.00D-01 BMatC= 3.65D-07 BMatP= 3.65D-07
 IDIUse=1 WtCom= 1.00D+00 WtEn= 0.00D+00
 Coeff-Com:  0.100D+01
 Coeff:      0.100D+01
 Gap=     0.380 Goal=   None    Shift=    0.000
 RMSDP=8.73D-06 MaxDP=2.09D-04 DE=-6.86D-05 OVMax= 3.76D-04

 Cycle   8  Pass 1  IDiag  1:
 E= -835.805345927638     Delta-E=       -0.000000214438 Rises=F Damp=F
 DIIS: error= 3.37D-05 at cycle   2 NSaved=   2.
 NSaved= 2 IEnMin= 2 EnMin= -835.805345927638     IErMin= 2 ErrMin= 3.37D-05
 ErrMax= 3.37D-05  0.00D+00 EMaxC= 1.00D-01 BMatC= 1.85D-07 BMatP= 3.65D-07
 IDIUse=1 WtCom= 1.00D+00 WtEn= 0.00D+00
 Coeff-Com:  0.391D+00 0.609D+00
 Coeff:      0.391D+00 0.609D+00
 Gap=     0.380 Goal=   None    Shift=    0.000
 RMSDP=5.57D-06 MaxDP=1.66D-04 DE=-2.14D-07 OVMax= 2.66D-04

 Cycle   9  Pass 1  IDiag  1:
 E= -835.805346080007     Delta-E=       -0.000000152369 Rises=F Damp=F
 DIIS: error= 1.27D-05 at cycle   3 NSaved=   3.
 NSaved= 3 IEnMin= 3 EnMin= -835.805346080007     IErMin= 3 ErrMin= 1.27D-05
 ErrMax= 1.27D-05  0.00D+00 EMaxC= 1.00D-01 BMatC= 2.38D-08 BMatP= 1.85D-07
 IDIUse=1 WtCom= 1.00D+00 WtEn= 0.00D+00
 Coeff-Com: -0.234D-01 0.246D+00 0.777D+00
 Coeff:     -0.234D-01 0.246D+00 0.777D+00
 Gap=     0.380 Goal=   None    Shift=    0.000
 RMSDP=1.96D-06 MaxDP=4.54D-05 DE=-1.52D-07 OVMax= 6.30D-05

 Cycle  10  Pass 1  IDiag  1:
 E= -835.805346101522     Delta-E=       -0.000000021515 Rises=F Damp=F
 DIIS: error= 2.44D-06 at cycle   4 NSaved=   4.
 NSaved= 4 IEnMin= 4 EnMin= -835.805346101522     IErMin= 4 ErrMin= 2.44D-06
 ErrMax= 2.44D-06  0.00D+00 EMaxC= 1.00D-01 BMatC= 1.01D-09 BMatP= 2.38D-08
 IDIUse=1 WtCom= 1.00D+00 WtEn= 0.00D+00
 Coeff-Com: -0.258D-01 0.696D-01 0.293D+00 0.664D+00
 Coeff:     -0.258D-01 0.696D-01 0.293D+00 0.664D+00
 Gap=     0.380 Goal=   None    Shift=    0.000
 RMSDP=5.39D-07 MaxDP=1.55D-05 DE=-2.15D-08 OVMax= 1.15D-05

 Cycle  11  Pass 1  IDiag  1:
 E= -835.805346102585     Delta-E=       -0.000000001063 Rises=F Damp=F
 DIIS: error= 5.72D-07 at cycle   5 NSaved=   5.
 NSaved= 5 IEnMin= 5 EnMin= -835.805346102585     IErMin= 5 ErrMin= 5.72D-07
 ErrMax= 5.72D-07  0.00D+00 EMaxC= 1.00D-01 BMatC= 5.35D-11 BMatP= 1.01D-09
 IDIUse=1 WtCom= 1.00D+00 WtEn= 0.00D+00
 Coeff-Com: -0.906D-03-0.121D-01-0.332D-01 0.134D+00 0.913D+00
 Coeff:     -0.906D-03-0.121D-01-0.332D-01 0.134D+00 0.913D+00
 Gap=     0.380 Goal=   None    Shift=    0.000
 RMSDP=1.27D-07 MaxDP=2.20D-06 DE=-1.06D-09 OVMax= 3.74D-06

 Cycle  12  Pass 1  IDiag  1:
 E= -835.805346102645     Delta-E=       -0.000000000060 Rises=F Damp=F
 DIIS: error= 2.48D-07 at cycle   6 NSaved=   6.
 NSaved= 6 IEnMin= 6 EnMin= -835.805346102645     IErMin= 6 ErrMin= 2.48D-07
 ErrMax= 2.48D-07  0.00D+00 EMaxC= 1.00D-01 BMatC= 9.89D-12 BMatP= 5.35D-11
 IDIUse=1 WtCom= 1.00D+00 WtEn= 0.00D+00
 Coeff-Com:  0.151D-02-0.102D-01-0.356D-01 0.179D-01 0.418D+00 0.609D+00
 Coeff:      0.151D-02-0.102D-01-0.356D-01 0.179D-01 0.418D+00 0.609D+00
 Gap=     0.380 Goal=   None    Shift=    0.000
 RMSDP=3.25D-08 MaxDP=6.61D-07 DE=-5.98D-11 OVMax= 5.92D-07

 Cycle  13  Pass 1  IDiag  1:
 E= -835.805346102655     Delta-E=       -0.000000000010 Rises=F Damp=F
 DIIS: error= 5.78D-08 at cycle   7 NSaved=   7.
 NSaved= 7 IEnMin= 7 EnMin= -835.805346102655     IErMin= 7 ErrMin= 5.78D-08
 ErrMax= 5.78D-08  0.00D+00 EMaxC= 1.00D-01 BMatC= 5.44D-13 BMatP= 9.89D-12
 IDIUse=1 WtCom= 1.00D+00 WtEn= 0.00D+00
 Coeff-Com:  0.724D-03-0.289D-02-0.113D-01-0.875D-02 0.734D-01 0.218D+00
 Coeff-Com:  0.731D+00
 Coeff:      0.724D-03-0.289D-02-0.113D-01-0.875D-02 0.734D-01 0.218D+00
 Coeff:      0.731D+00
 Gap=     0.380 Goal=   None    Shift=    0.000
 RMSDP=8.72D-09 MaxDP=1.28D-07 DE=-1.00D-11 OVMax= 2.11D-07

 SCF Done:  E(RM052X) =  -835.805346103     A.U. after   13 cycles
            NFock= 13  Conv=0.87D-08     -V/T= 2.0049
 KE= 8.317314046058D+02 PE=-2.569974170113D+03 EE= 6.091052011750D+02
 Leave Link  502 at Thu Jul 10 13:50:57 2025, MaxMem=  2684354560 cpu:              41.3 elap:               2.3
 (Enter /apps/gaussian/g16c01/g16/l601.exe)
 Copying SCF densities to generalized density rwf, IOpCl= 0 IROHF=0.

 **********************************************************************

            Population analysis using the SCF Density.

 **********************************************************************

 Orbital symmetries:
       Occupied  (A) (A) (A) (A) (A) (A) (A) (A) (A) (A) (A) (A)
                 (A) (A) (A) (A) (A) (A) (A) (A) (A) (A) (A) (A)
                 (A) (A) (A) (A)
       Virtual   (A) (A) (A) (A) (A) (A) (A) (A) (A) (A) (A) (A)
                 (A) (A) (A) (A) (A) (A) (A) (A) (A) (A) (A) (A)
                 (A) (A) (A) (A) (A) (A) (A) (A) (A) (A) (A) (A)
                 (A) (A) (A) (A) (A) (A) (A) (A) (A) (A) (A) (A)
                 (A) (A) (A) (A) (A) (A) (A) (A) (A) (A) (A) (A)
                 (A) (A) (A) (A) (A) (A)
 The electronic state is 1-A.
 Alpha  occ. eigenvalues -- -102.80715 -25.36938 -25.36687 -25.35188 -10.77986
 Alpha  occ. eigenvalues --  -10.74075  -9.85258  -7.57900  -7.57225  -7.57205
 Alpha  occ. eigenvalues --   -1.45035  -1.39864  -1.38585  -1.01398  -0.89576
 Alpha  occ. eigenvalues --   -0.75478  -0.70103  -0.68664  -0.65398  -0.60634
 Alpha  occ. eigenvalues --   -0.59164  -0.57429  -0.56636  -0.54565  -0.50401
 Alpha  occ. eigenvalues --   -0.44671  -0.42113  -0.32121
 Alpha virt. eigenvalues --    0.05853   0.06141   0.12867   0.19826   0.30414
 Alpha virt. eigenvalues --    0.40165   0.41634   0.47221   0.47712   0.51582
 Alpha virt. eigenvalues --    0.54379   0.56109   0.59346   0.63132   0.64925
 Alpha virt. eigenvalues --    0.70822   0.88500   0.89205   0.90310   0.92142
 Alpha virt. eigenvalues --    1.01176   1.06699   1.12094   1.16487   1.18948
 Alpha virt. eigenvalues --    1.21587   1.25613   1.31877   1.39896   1.41229
 Alpha virt. eigenvalues --    1.42230   1.43521   1.45159   1.50417   1.60903
 Alpha virt. eigenvalues --    1.64951   1.72505   1.80618   1.80968   1.87418
 Alpha virt. eigenvalues --    1.88492   1.89655   1.95361   1.98895   2.00579
 Alpha virt. eigenvalues --    2.03098   2.04944   2.10417   2.13537   2.25428
 Alpha virt. eigenvalues --    2.38096   2.39992   2.56321   2.60813   2.68873
 Alpha virt. eigenvalues --    2.81723   3.02930   3.07080   3.16661   3.25356
 Alpha virt. eigenvalues --    4.04743   4.17765   4.35408   4.43061   4.90708
 Alpha virt. eigenvalues --    5.53595
          Condensed to atoms (all electrons):
               1          2          3          4          5          6
     1  C    5.095739   0.419247   0.256501   0.264574  -0.057780  -0.063020
     2  C    0.419247   4.496473  -0.078286  -0.041556   0.321298   0.329951
     3  Cl   0.256501  -0.078286  16.780065  -0.037381   0.001411   0.005365
     4  F    0.264574  -0.041556  -0.037381   9.060748  -0.000039   0.000249
     5  F   -0.057780   0.321298   0.001411  -0.000039   9.006816  -0.038289
     6  F   -0.063020   0.329951   0.005365   0.000249  -0.038289   8.995670
 Mulliken charges:
               1
     1  C    0.084739
     2  C    0.552874
     3  Cl   0.072325
     4  F   -0.246595
     5  F   -0.233416
     6  F   -0.229926
 Sum of Mulliken charges =  -0.00000
 Mulliken charges with hydrogens summed into heavy atoms:
               1
     1  C    0.084739
     2  C    0.552874
     3  Cl   0.072325
     4  F   -0.246595
     5  F   -0.233416
     6  F   -0.229926
 Electronic spatial extent (au):  <R**2>=            663.4411
 Charge=             -0.0000 electrons
 Dipole moment (field-independent basis, Debye):
    X=              0.0055    Y=             -0.3590    Z=              0.0002  Tot=              0.3590
 Quadrupole moment (field-independent basis, Debye-Ang):
   XX=            -37.7259   YY=            -39.2048   ZZ=            -36.9053
   XY=             -0.5827   XZ=             -0.0006   YZ=              0.0001
 Traceless Quadrupole moment (field-independent basis, Debye-Ang):
   XX=              0.2194   YY=             -1.2594   ZZ=              1.0400
   XY=             -0.5827   XZ=             -0.0006   YZ=              0.0001
 Octapole moment (field-independent basis, Debye-Ang**2):
  XXX=             -8.4911  YYY=              2.2222  ZZZ=             -0.0005  XYY=             -3.7554
  XXY=             -1.4175  XXZ=             -0.0004  XZZ=             -6.0857  YZZ=              1.2850
  YYZ=             -0.0006  XYZ=              0.0002
 Hexadecapole moment (field-independent basis, Debye-Ang**3):
 XXXX=           -433.9733 YYYY=           -206.1587 ZZZZ=            -31.6210 XXXY=             -0.3830
 XXXZ=              0.0018 YYYX=              3.3143 YYYZ=              0.0001 ZZZX=              0.0059
 ZZZY=             -0.0002 XXYY=           -106.0983 XXZZ=            -79.6183 YYZZ=            -38.8755
 XXYZ=              0.0012 YYXZ=              0.0018 ZZXY=              2.7555
 N-N= 2.933322182294D+02 E-N=-2.569974163097D+03  KE= 8.317314046058D+02
 No NMR shielding tensors so no spin-rotation constants.
 Leave Link  601 at Thu Jul 10 13:50:57 2025, MaxMem=  2684354560 cpu:               5.3 elap:               0.3
 (Enter /apps/gaussian/g16c01/g16/l9999.exe)
 Unable to Open any file for archive entry.
 1\1\GINC-GADI-CPU-CLX-0534\SP\RM052X\6-31G(d)\C2Cl1F3\YR9300\10-Jul-20
 25\0\\#P M052X/6-31G*\\Cl1F3_oct_vaccum_M05-2x\\0,1\C,0,0.248307,0.398
 793,0.000102\C,0,-0.936388,-0.192806,0.000162\Cl,0,1.746416,-0.444626,
 -0.000123\F,0,0.34376,1.731341,0.000109\F,0,-2.075993,0.469523,-0.0002
 12\F,0,-1.107832,-1.49834,0.000159\\Version=ES64L-G16RevC.01\State=1-A
 \HF=-835.8053461\RMSD=8.722e-09\Dipole=0.0021455,-0.1412299,0.0000602\
 Quadrupole=0.1631512,-0.9363632,0.7732119,-0.433194,-0.0004104,0.00010
 31\PG=C01 [X(C2Cl1F3)]\\@
 The archive entry for this job was punched.


 HE THAT IS UNAWARE OF HIS IGNORANCE WILL BE MISLED BY HIS KNOWLEDGE.

                                        -- WHATLEY
 Job cpu time:       0 days  0 hours  1 minutes  4.2 seconds.
 Elapsed time:       0 days  0 hours  0 minutes  3.6 seconds.
 File lengths (MBytes):  RWF=     10 Int=      0 D2E=      0 Chk=      2 Scr=      1
 Normal termination of Gaussian 16 at Thu Jul 10 13:50:57 2025.
