 Entering Gaussian System, Link 0=g09
 Initial command:
 /apps/z_install_tree/linux-rocky8-ivybridge/gcc-12.2.0/gaussian-09-D.01-wczn3gur5lpur3omlkzwa2l5ecyxp5ef/g09/l1.exe "/srv/scratch/z5112331/Gaussian/Cobalamin_parameter/B3LYP/Gau-1419789.inp" -scrdir="/srv/scratch/z5112331/Gaussian/Cobalamin_parameter/B3LYP/"
 Entering Link 1 = /apps/z_install_tree/linux-rocky8-ivybridge/gcc-12.2.0/gaussian-09-D.01-wczn3gur5lpur3omlkzwa2l5ecyxp5ef/g09/l1.exe PID=   1419792.
  
 Copyright (c) 1988,1990,1992,1993,1995,1998,2003,2009,2013,
            Gaussian, Inc.  All Rights Reserved.
  
 This is part of the Gaussian(R) 09 program.  It is based on
 the Gaussian(R) 03 system (copyright 2003, Gaussian, Inc.),
 the Gaussian(R) 98 system (copyright 1998, Gaussian, Inc.),
 the Gaussian(R) 94 system (copyright 1995, Gaussian, Inc.),
 the Gaussian 92(TM) system (copyright 1992, Gaussian, Inc.),
 the Gaussian 90(TM) system (copyright 1990, Gaussian, Inc.),
 the Gaussian 88(TM) system (copyright 1988, Gaussian, Inc.),
 the Gaussian 86(TM) system (copyright 1986, Carnegie Mellon
 University), and the Gaussian 82(TM) system (copyright 1983,
 Carnegie Mellon University). Gaussian is a federally registered
 trademark of Gaussian, Inc.
  
 This software contains proprietary and confidential information,
 including trade secrets, belonging to Gaussian, Inc.
  
 This software is provided under written license and may be
 used, copied, transmitted, or stored only in accord with that
 written license.
  
 The following legend is applicable only to US Government
 contracts under FAR:
  
                    RESTRICTED RIGHTS LEGEND
  
 Use, reproduction and disclosure by the US Government is
 subject to restrictions as set forth in subparagraphs (a)
 and (c) of the Commercial Computer Software - Restricted
 Rights clause in FAR 52.227-19.
  
 Gaussian, Inc.
 340 Quinnipiac St., Bldg. 40, Wallingford CT 06492
  
  
 ---------------------------------------------------------------
 Warning -- This program may not be used in any manner that
 competes with the business of Gaussian, Inc. or will provide
 assistance to any competitor of Gaussian, Inc.  The licensee
 of this program is prohibited from giving any competitor of
 Gaussian, Inc. access to this program.  By using this program,
 the user acknowledges that Gaussian, Inc. is engaged in the
 business of creating and licensing software in the field of
 computational chemistry and represents and warrants to the
 licensee that it is not a competitor of Gaussian, Inc. and that
 it will not use this program in any manner prohibited above.
 ---------------------------------------------------------------
  

 Cite this work as:
 Gaussian 09, Revision D.01,
 M. J. Frisch, G. W. Trucks, H. B. Schlegel, G. E. Scuseria, 
 M. A. Robb, J. R. Cheeseman, G. Scalmani, V. Barone, B. Mennucci, 
 G. A. Petersson, H. Nakatsuji, M. Caricato, X. Li, H. P. Hratchian, 
 A. F. Izmaylov, J. Bloino, G. Zheng, J. L. Sonnenberg, M. Hada, 
 M. Ehara, K. Toyota, R. Fukuda, J. Hasegawa, M. Ishida, T. Nakajima, 
 Y. Honda, O. Kitao, H. Nakai, T. Vreven, J. A. Montgomery, Jr., 
 J. E. Peralta, F. Ogliaro, M. Bearpark, J. J. Heyd, E. Brothers, 
 K. N. Kudin, V. N. Staroverov, T. Keith, R. Kobayashi, J. Normand, 
 K. Raghavachari, A. Rendell, J. C. Burant, S. S. Iyengar, J. Tomasi, 
 M. Cossi, N. Rega, J. M. Millam, M. Klene, J. E. Knox, J. B. Cross, 
 V. Bakken, C. Adamo, J. Jaramillo, R. Gomperts, R. E. Stratmann, 
 O. Yazyev, A. J. Austin, R. Cammi, C. Pomelli, J. W. Ochterski, 
 R. L. Martin, K. Morokuma, V. G. Zakrzewski, G. A. Voth, 
 P. Salvador, J. J. Dannenberg, S. Dapprich, A. D. Daniels, 
 O. Farkas, J. B. Foresman, J. V. Ortiz, J. Cioslowski, 
 and D. J. Fox, Gaussian, Inc., Wallingford CT, 2013.
 
 ******************************************
 Gaussian 09:  ES64L-G09RevD.01 24-Apr-2013
                15-Mar-2024 
 ******************************************
 %chk=BVQ_opt.chk
 %mem=200GB
 %nprocshared=20
 Will use up to   20 processors via shared memory.
 -----------------------------------
 # freq b3lyp/6-311g(d,p) guess=read
 -----------------------------------
 1/10=4,30=1,38=1/1,3;
 2/12=2,17=6,18=5,40=1/2;
 3/5=4,6=6,7=101,11=2,16=1,25=1,30=1,71=2,74=-5,116=-2,140=1/1,2,3;
 4/5=1/1;
 5/5=2,38=6,98=1/2;
 8/6=4,10=90,11=11/1;
 11/6=1,8=1,9=11,15=111,16=1/1,2,10;
 10/6=1/2;
 6/7=2,8=2,9=2,10=2,18=1,28=1/1;
 7/8=1,10=1,25=1/1,2,3,16;
 1/10=4,30=1/3;
 99//99;
 --------
 BVQ_opt1
 --------
 Symbolic Z-matrix:
 Charge =  0 Multiplicity = 2
 P                     5.07392  -2.89189   1.69769 
 C                     5.58002  -2.67667  -2.1764 
 C                     5.86875  -2.19073  -0.7647 
 C                    -0.83371   1.54429  -1.28776 
 C                     3.70435   1.22666   2.74898 
 N                     4.48258   1.58417   1.541 
 C                    -0.76981   3.12882  -1.13272 
 C                     4.02533   1.49784   0.25825 
 C                     4.17689  -0.04985   3.48664 
 O                     4.00425  -1.59807   1.56062 
 C                    -1.90236   3.41647  -0.06229 
 C                     3.38517  -1.16706   2.76522 
 N                     4.74422   2.15292  -0.62629 
 O                     5.30594  -3.16639   0.1149 
 C                    -2.75373   2.16837  -0.11786 
 C                     2.07588  -0.45766   2.41252 
 N                     6.71801   3.54497  -0.35625 
 O                     6.30414  -2.33181   2.36284 
 C                    -4.04174   2.02238   0.54028 
 C                     7.53429   3.97982   0.59408 
 C                     0.90673  -0.6932    3.36073 
 O                     4.31988  -4.06506   2.24038 
 C                    -4.5175    0.77622   0.83909 
 N                     7.53651   3.67319   1.90316 
 O                     2.36229   0.97408   2.40907 
 C                    -5.73697   0.40522   1.70682 
 C                     6.59789   2.84257   2.37236 
 N                     6.6166    2.5024    3.69925 
 O                     5.55942  -0.16366   3.59237 
 C                    -5.25897  -0.98846   2.24309 
 C                     5.62243   2.38267   1.46659 
 O                     0.31365  -1.95032   3.0542 
 C                    -4.44632  -1.46448   1.06406 
 C                     5.75498   2.73542   0.11289 
 C                    -4.28319  -2.7999    0.70779 
 C                    -3.55998  -3.25425  -0.38738 
 C                    -3.52532  -4.70967  -0.8294 
 C                    -2.29068  -4.69375  -1.7711 
 C                    -2.20541  -3.23151  -2.1755 
 C                    -1.45392  -2.76449  -3.22844 
 C                    -1.02867  -1.38463  -3.29395 
 C                     0.02187  -0.80806  -4.25386 
 C                     0.43153   0.50739  -3.49228 
 C                    -0.85068   0.86839  -2.70803 
 C                     0.18399   0.82901  -0.38655 
 N                    -2.19148   1.21027  -0.77934 
 N                    -3.92951  -0.4213    0.40175 
 N                    -2.86731  -2.46051  -1.2313 
 N                    -1.47593  -0.46929  -2.47769 
 C                     0.61593   3.63784  -0.69671 
 C                    -1.17173   3.82591  -2.4668 
 C                    -1.01968   5.34523  -2.41967 
 O                    -1.7928    6.0599   -1.77756 
 N                     0.00986   5.83138  -3.13846 
 C                    -1.46505   3.73108   1.39864 
 C                    -1.27343   5.23324   1.68278 
 C                    -2.61564   5.95186   1.81333 
 N                    -2.90323   6.84929   0.83603 
 O                    -3.36929   5.71612   2.7493 
 C                    -4.7948    3.30205   0.8395 
 C                    -6.12092   1.37177   2.83627 
 C                    -6.98798   0.10938   0.80606 
 C                    -7.36644   1.21253  -0.17644 
 O                    -6.76721   1.36808  -1.22412 
 N                    -8.40133   2.02217   0.20161 
 C                    -4.37587  -0.91758   3.51464 
 C                    -3.96332  -2.30047   4.05532 
 C                    -2.95501  -2.16327   5.18789 
 O                    -1.77253  -1.9249    4.97729 
 N                    -3.44284  -2.28382   6.44745 
 C                    -4.80183  -4.97612  -1.66891 
 C                    -3.46358  -5.72589   0.31756 
 C                    -0.92513  -5.13663  -1.16667 
 C                    -0.29956  -4.22752  -0.09904 
 C                     1.22405  -4.42871   0.01278 
 O                     1.89134  -4.66642  -0.99867 
 N                     1.72329  -4.30225   1.24787 
 C                    -0.99615  -3.76076  -4.27868 
 C                    -0.65961  -0.50411  -5.6086 
 C                     1.28409  -1.67714  -4.46872 
 C                     1.92386  -2.25353  -3.19234 
 C                     3.42161  -1.95696  -3.10534 
 O                     3.90007  -0.94572  -3.63267 
 N                     4.15051  -2.8525   -2.4193 
 C                     1.08432   1.56192  -4.41424 
 C                     2.10284   2.48031  -3.73173 
 N                     3.17852   1.86876  -3.21891 
 O                     1.9026    3.69762  -3.65379 
 Co                   -2.68819  -0.56933  -1.03744 
 H                     6.07418  -3.6385   -2.3358 
 H                     5.95469  -1.9583   -2.90553 
 H                     5.41028  -1.21266  -0.59608 
 H                     6.94767  -2.10854  -0.60004 
 H                     3.73992   2.10315   3.39819 
 H                     3.1393    0.93207   0.03272 
 H                     3.74142   0.03096   4.49488 
 H                    -2.48675   4.26892  -0.41277 
 H                     3.20774  -2.02501   3.41986 
 H                     1.77361  -0.7568    1.40709 
 H                     8.31998   4.66162   0.28007 
 H                     0.19056   0.12658   3.2182 
 H                     1.24661  -0.65781   4.4047 
 H                     7.463     2.81007   4.15883 
 H                     5.91624  -0.97911   3.1198 
 H                    -6.11551  -1.64162   2.43704 
 H                    -0.42046  -2.06815   3.6786 
 H                    -4.7925   -3.53906   1.31019 
 H                    -2.48119  -5.34389  -2.62671 
 H                     1.18294   0.2053   -2.76213 
 H                    -1.53698   1.44027  -3.33964 
 H                     1.20077   1.0239   -0.72211 
 H                     0.10143   1.1635    0.64643 
 H                     0.01882  -0.25008  -0.40067 
 H                     0.58661   4.71424  -0.52603 
 H                     0.96912   3.17485   0.22158 
 H                     1.3629    3.4723   -1.46916 
 H                    -2.21801   3.61437  -2.70678 
 H                    -0.54887   3.44927  -3.27365 
 H                     0.72332   5.20458  -3.50754 
 H                    -0.54891   3.19296   1.64568 
 H                    -2.2242    3.3659    2.09412 
 H                    -0.64738   5.70423   0.92479 
 H                    -0.77208   5.34665   2.64726 
 H                    -2.40855   6.83649  -0.04964 
 H                    -4.59782   4.033     0.05372 
 H                    -5.86848   3.14346   0.83843 
 H                    -4.5128    3.77286   1.78505 
 H                    -6.68078   2.22969   2.4698 
 H                    -6.76109   0.85217   3.55641 
 H                    -5.2503    1.7531    3.37036 
 H                    -7.82255  -0.1344    1.47153 
 H                    -6.78796  -0.76964   0.19035 
 H                    -8.96997   1.82965   1.00832 
 H                    -4.91838  -0.38379   4.29856 
 H                    -3.47299  -0.33976   3.29888 
 H                    -3.46912  -2.87868   3.27339 
 H                    -4.84858  -2.85788   4.37972 
 H                    -4.4042   -2.5095    6.63608 
 H                    -4.87183  -4.29159  -2.51801 
 H                    -4.78533  -5.99911  -2.05542 
 H                    -5.70224  -4.85609  -1.06155 
 H                    -3.33299  -6.73478  -0.08173 
 H                    -2.64426  -5.52701   1.00848 
 H                    -4.39629  -5.72687   0.88763 
 H                    -0.20265  -5.20728  -1.98104 
 H                    -1.02969  -6.15197  -0.77326 
 H                    -0.76731  -4.35686   0.87967 
 H                    -0.43582  -3.17517  -0.36766 
 H                     1.14428  -3.91267   1.97933 
 H                    -0.95497  -3.30407  -5.26568 
 H                    -0.0126   -4.18876  -4.07251 
 H                    -1.7012   -4.58786  -4.35361 
 H                     0.06058  -0.09021  -6.31706 
 H                    -1.07108  -1.40931  -6.05745 
 H                    -1.47963   0.21051  -5.50121 
 H                     2.02634  -1.03764  -4.95274 
 H                     1.07922  -2.47763  -5.17913 
 H                     1.75507  -3.32394  -3.08206 
 H                     1.4818   -1.80885  -2.29393 
 H                     0.34256   2.19293  -4.90504 
 H                     1.62407   1.03258  -5.20453 
 H                     3.38161   0.88506  -3.39621 
 H                    -8.7141    2.72481  -0.4512 
 H                     0.19794   6.82106  -3.08038 
 H                     3.83861   2.3636   -2.6193 
 H                    -2.80295  -2.18804   7.22147 
 H                     2.73844  -4.32293   1.44505 
 H                     6.34888   1.53588   3.89426 
 H                     3.66511  -3.58093  -1.90013 
 H                    -3.81821   7.27401   0.86442 
 

 GradGradGradGradGradGradGradGradGradGradGradGradGradGradGradGradGradGrad
 Berny optimization.
 Initialization pass.
 Trust Radius=3.00D-01 FncErr=1.00D-07 GrdErr=1.00D-07
 Number of steps in this run=      2 maximum allowed number of steps=      2.
 GradGradGradGradGradGradGradGradGradGradGradGradGradGradGradGradGradGrad

 Stoichiometry    C57H81CoN16O14P(2)
 Framework group  C1[X(C57H81CoN16O14P)]
 Deg. of freedom   504
 Full point group                 C1      NOp   1
 Largest Abelian subgroup         C1      NOp   1
 Largest concise Abelian subgroup C1      NOp   1
                         Standard orientation:                         
 ---------------------------------------------------------------------
 Center     Atomic      Atomic             Coordinates (Angstroms)
 Number     Number       Type             X           Y           Z
 ---------------------------------------------------------------------
      1         15           0        5.073922   -2.891887    1.697694
      2          6           0        5.580020   -2.676672   -2.176404
      3          6           0        5.868745   -2.190734   -0.764701
      4          6           0       -0.833711    1.544293   -1.287755
      5          6           0        3.704353    1.226663    2.748984
      6          7           0        4.482579    1.584174    1.541004
      7          6           0       -0.769809    3.128823   -1.132717
      8          6           0        4.025328    1.497839    0.258253
      9          6           0        4.176885   -0.049850    3.486639
     10          8           0        4.004254   -1.598072    1.560619
     11          6           0       -1.902355    3.416471   -0.062288
     12          6           0        3.385166   -1.167061    2.765221
     13          7           0        4.744217    2.152921   -0.626292
     14          8           0        5.305943   -3.166392    0.114901
     15          6           0       -2.753729    2.168373   -0.117862
     16          6           0        2.075881   -0.457658    2.412520
     17          7           0        6.718006    3.544971   -0.356250
     18          8           0        6.304138   -2.331809    2.362838
     19          6           0       -4.041743    2.022378    0.540282
     20          6           0        7.534290    3.979824    0.594081
     21          6           0        0.906726   -0.693196    3.360729
     22          8           0        4.319883   -4.065056    2.240384
     23          6           0       -4.517497    0.776223    0.839091
     24          7           0        7.536505    3.673194    1.903157
     25          8           0        2.362288    0.974077    2.409072
     26          6           0       -5.736967    0.405215    1.706818
     27          6           0        6.597885    2.842565    2.372364
     28          7           0        6.616601    2.502399    3.699253
     29          8           0        5.559422   -0.163656    3.592366
     30          6           0       -5.258971   -0.988456    2.243091
     31          6           0        5.622427    2.382670    1.466594
     32          8           0        0.313651   -1.950321    3.054199
     33          6           0       -4.446316   -1.464476    1.064058
     34          6           0        5.754976    2.735424    0.112889
     35          6           0       -4.283189   -2.799903    0.707790
     36          6           0       -3.559976   -3.254248   -0.387378
     37          6           0       -3.525323   -4.709665   -0.829402
     38          6           0       -2.290681   -4.693748   -1.771103
     39          6           0       -2.205408   -3.231507   -2.175499
     40          6           0       -1.453918   -2.764489   -3.228441
     41          6           0       -1.028667   -1.384631   -3.293946
     42          6           0        0.021868   -0.808060   -4.253863
     43          6           0        0.431526    0.507391   -3.492276
     44          6           0       -0.850682    0.868390   -2.708034
     45          6           0        0.183989    0.829009   -0.386550
     46          7           0       -2.191476    1.210268   -0.779340
     47          7           0       -3.929512   -0.421304    0.401749
     48          7           0       -2.867312   -2.460509   -1.231303
     49          7           0       -1.475925   -0.469290   -2.477690
     50          6           0        0.615926    3.637839   -0.696713
     51          6           0       -1.171727    3.825913   -2.466803
     52          6           0       -1.019680    5.345233   -2.419665
     53          8           0       -1.792802    6.059903   -1.777564
     54          7           0        0.009856    5.831378   -3.138462
     55          6           0       -1.465045    3.731083    1.398639
     56          6           0       -1.273425    5.233244    1.682779
     57          6           0       -2.615642    5.951857    1.813328
     58          7           0       -2.903231    6.849291    0.836028
     59          8           0       -3.369286    5.716123    2.749301
     60          6           0       -4.794796    3.302046    0.839499
     61          6           0       -6.120919    1.371774    2.836269
     62          6           0       -6.987981    0.109381    0.806060
     63          6           0       -7.366440    1.212531   -0.176442
     64          8           0       -6.767210    1.368077   -1.224120
     65          7           0       -8.401329    2.022170    0.201610
     66          6           0       -4.375865   -0.917583    3.514640
     67          6           0       -3.963316   -2.300473    4.055317
     68          6           0       -2.955009   -2.163274    5.187894
     69          8           0       -1.772533   -1.924898    4.977294
     70          7           0       -3.442840   -2.283817    6.447446
     71          6           0       -4.801832   -4.976122   -1.668912
     72          6           0       -3.463579   -5.725890    0.317562
     73          6           0       -0.925127   -5.136631   -1.166673
     74          6           0       -0.299555   -4.227518   -0.099040
     75          6           0        1.224049   -4.428710    0.012780
     76          8           0        1.891335   -4.666420   -0.998674
     77          7           0        1.723290   -4.302251    1.247870
     78          6           0       -0.996145   -3.760763   -4.278677
     79          6           0       -0.659612   -0.504112   -5.608598
     80          6           0        1.284093   -1.677144   -4.468715
     81          6           0        1.923861   -2.253529   -3.192340
     82          6           0        3.421613   -1.956957   -3.105335
     83          8           0        3.900074   -0.945716   -3.632673
     84          7           0        4.150513   -2.852502   -2.419302
     85          6           0        1.084321    1.561917   -4.414238
     86          6           0        2.102840    2.480305   -3.731733
     87          7           0        3.178522    1.868762   -3.218913
     88          8           0        1.902603    3.697623   -3.653791
     89         27           0       -2.688186   -0.569326   -1.037436
     90          1           0        6.074179   -3.638495   -2.335799
     91          1           0        5.954685   -1.958299   -2.905528
     92          1           0        5.410283   -1.212662   -0.596084
     93          1           0        6.947674   -2.108545   -0.600040
     94          1           0        3.739924    2.103148    3.398185
     95          1           0        3.139296    0.932065    0.032717
     96          1           0        3.741416    0.030958    4.494876
     97          1           0       -2.486748    4.268918   -0.412769
     98          1           0        3.207736   -2.025014    3.419863
     99          1           0        1.773606   -0.756801    1.407087
    100          1           0        8.319976    4.661620    0.280068
    101          1           0        0.190559    0.126581    3.218203
    102          1           0        1.246608   -0.657806    4.404703
    103          1           0        7.463000    2.810072    4.158829
    104          1           0        5.916239   -0.979114    3.119798
    105          1           0       -6.115508   -1.641617    2.437043
    106          1           0       -0.420457   -2.068146    3.678598
    107          1           0       -4.792496   -3.539060    1.310188
    108          1           0       -2.481193   -5.343887   -2.626706
    109          1           0        1.182935    0.205297   -2.762127
    110          1           0       -1.536980    1.440271   -3.339637
    111          1           0        1.200768    1.023901   -0.722106
    112          1           0        0.101430    1.163500    0.646428
    113          1           0        0.018815   -0.250084   -0.400666
    114          1           0        0.586612    4.714239   -0.526025
    115          1           0        0.969121    3.174850    0.221578
    116          1           0        1.362904    3.472296   -1.469156
    117          1           0       -2.218011    3.614366   -2.706778
    118          1           0       -0.548872    3.449271   -3.273647
    119          1           0        0.723322    5.204575   -3.507542
    120          1           0       -0.548911    3.192958    1.645678
    121          1           0       -2.224197    3.365896    2.094123
    122          1           0       -0.647377    5.704233    0.924785
    123          1           0       -0.772076    5.346645    2.647261
    124          1           0       -2.408549    6.836486   -0.049635
    125          1           0       -4.597824    4.032998    0.053717
    126          1           0       -5.868482    3.143464    0.838430
    127          1           0       -4.512800    3.772857    1.785045
    128          1           0       -6.680782    2.229689    2.469797
    129          1           0       -6.761093    0.852165    3.556408
    130          1           0       -5.250296    1.753103    3.370363
    131          1           0       -7.822551   -0.134400    1.471532
    132          1           0       -6.787963   -0.769643    0.190347
    133          1           0       -8.969970    1.829649    1.008320
    134          1           0       -4.918375   -0.383792    4.298557
    135          1           0       -3.472991   -0.339758    3.298879
    136          1           0       -3.469120   -2.878679    3.273391
    137          1           0       -4.848575   -2.857875    4.379723
    138          1           0       -4.404204   -2.509502    6.636083
    139          1           0       -4.871834   -4.291586   -2.518005
    140          1           0       -4.785334   -5.999114   -2.055424
    141          1           0       -5.702243   -4.856091   -1.061551
    142          1           0       -3.332991   -6.734777   -0.081732
    143          1           0       -2.644257   -5.527012    1.008482
    144          1           0       -4.396289   -5.726867    0.887626
    145          1           0       -0.202653   -5.207279   -1.981042
    146          1           0       -1.029687   -6.151973   -0.773256
    147          1           0       -0.767306   -4.356859    0.879667
    148          1           0       -0.435817   -3.175165   -0.367660
    149          1           0        1.144279   -3.912666    1.979330
    150          1           0       -0.954965   -3.304072   -5.265677
    151          1           0       -0.012597   -4.188762   -4.072512
    152          1           0       -1.701198   -4.587862   -4.353614
    153          1           0        0.060580   -0.090206   -6.317064
    154          1           0       -1.071078   -1.409308   -6.057448
    155          1           0       -1.479634    0.210511   -5.501214
    156          1           0        2.026340   -1.037641   -4.952737
    157          1           0        1.079222   -2.477633   -5.179134
    158          1           0        1.755073   -3.323939   -3.082060
    159          1           0        1.481800   -1.808854   -2.293925
    160          1           0        0.342564    2.192928   -4.905035
    161          1           0        1.624074    1.032576   -5.204533
    162          1           0        3.381613    0.885058   -3.396212
    163          1           0       -8.714102    2.724807   -0.451204
    164          1           0        0.197938    6.821064   -3.080384
    165          1           0        3.838610    2.363597   -2.619300
    166          1           0       -2.802952   -2.188039    7.221474
    167          1           0        2.738442   -4.322933    1.445053
    168          1           0        6.348883    1.535875    3.894258
    169          1           0        3.665111   -3.580934   -1.900134
    170          1           0       -3.818210    7.274011    0.864416
 ---------------------------------------------------------------------
 Rotational constants (GHZ):      0.0251263      0.0178948      0.0158317
 Standard basis: 6-311G(d,p) (5D, 7F)
 There are  2218 symmetry adapted cartesian basis functions of A   symmetry.
 There are  2124 symmetry adapted basis functions of A   symmetry.
  2124 basis functions,  3559 primitive gaussians,  2218 cartesian basis functions
   345 alpha electrons      344 beta electrons
       nuclear repulsion energy     21111.5687958506 Hartrees.
 NAtoms=  170 NActive=  170 NUniq=  170 SFac= 1.00D+00 NAtFMM=   60 NAOKFM=T Big=T
 Integral buffers will be    131072 words long.
 Raffenetti 2 integral format.
 Two-electron integral symmetry is turned on.
 One-electron integrals computed using PRISM.
 NBasis=  2124 RedAO= T EigKep=  2.26D-04  NBF=  2124
 NBsUse=  2124 1.00D-06 EigRej= -1.00D+00 NBFU=  2124
 Initial guess from the checkpoint file:  "BVQ_opt.chk"
 B after Tr=     0.000000    0.000000    0.000000
         Rot=    1.000000    0.000000    0.000000    0.000000 Ang=   0.00 deg.
 Initial guess <Sx>= 0.0000 <Sy>= 0.0000 <Sz>= 0.5000 <S**2>= 0.7572 S= 0.5036
 Requested convergence on RMS density matrix=1.00D-08 within 128 cycles.
 Requested convergence on MAX density matrix=1.00D-06.
 Requested convergence on             energy=1.00D-06.
 No special actions if energy rises.
 SCF Done:  E(UB3LYP) =  -5875.61162395     A.U. after    1 cycles
            NFock=  1  Conv=0.50D-08     -V/T= 2.0030
 <Sx>= 0.0000 <Sy>= 0.0000 <Sz>= 0.5000 <S**2>= 0.7572 S= 0.5036
 <L.S>= 0.000000000000E+00
 Annihilation of the first spin contaminant:
 S**2 before annihilation     0.7572,   after     0.7500
 DoSCS=F DFT=T ScalE2(SS,OS)=  1.000000  1.000000
 Range of M.O.s used for correlation:     1  2124
 NBasis=  2124 NAE=   345 NBE=   344 NFC=     0 NFV=     0
 NROrb=   2124 NOA=   345 NOB=   344 NVA=  1779 NVB=  1780

 **** Warning!!: The smallest alpha delta epsilon is  0.87291747D-01


 **** Warning!!: The smallest beta delta epsilon is  0.87425261D-01

 Symmetrizing basis deriv contribution to polar:
 IMax=3 JMax=2 DiffMx= 0.00D+00
 G2DrvN: will do    57 centers at a time, making    3 passes.
 Calling FoFCou, ICntrl=  3107 FMM=T I1Cent=   0 AccDes= 0.00D+00.
 Calling FoFCou, ICntrl=  3107 FMM=T I1Cent=   0 AccDes= 0.00D+00.
 Calling FoFCou, ICntrl=  3107 FMM=T I1Cent=   0 AccDes= 0.00D+00.
 End of G2Drv F.D. properties file   721 does not exist.
 End of G2Drv F.D. properties file   722 does not exist.
 End of G2Drv F.D. properties file   788 does not exist.
          IDoAtm=11111111111111111111111111111111111111111111111111
          IDoAtm=11111111111111111111111111111111111111111111111111
          IDoAtm=11111111111111111111111111111111111111111111111111
          IDoAtm=11111111111111111111
          Differentiating once with respect to electric field.
                with respect to dipole field.
          Differentiating once with respect to nuclear coordinates.
 CalDSu exits because no D1Ps are significant.
          There are   513 degrees of freedom in the 1st order CPHF.  IDoFFX=6 NUNeed=     3.
    513 vectors produced by pass  0 Test12= 1.23D-12 1.00D-09 XBig12= 1.91D+03 1.08D+01.
 AX will form    72 AO Fock derivatives at one time.
    513 vectors produced by pass  1 Test12= 1.23D-12 1.00D-09 XBig12= 4.33D+02 2.53D+00.
    513 vectors produced by pass  2 Test12= 1.23D-12 1.00D-09 XBig12= 4.18D+00 1.29D-01.
    510 vectors produced by pass  3 Test12= 1.23D-12 1.00D-09 XBig12= 2.14D-02 7.23D-03.
    510 vectors produced by pass  4 Test12= 1.23D-12 1.00D-09 XBig12= 7.31D-05 6.07D-04.
    496 vectors produced by pass  5 Test12= 1.23D-12 1.00D-09 XBig12= 2.36D-07 2.19D-05.
    208 vectors produced by pass  6 Test12= 1.23D-12 1.00D-09 XBig12= 9.33D-10 1.96D-06.
     27 vectors produced by pass  7 Test12= 1.23D-12 1.00D-09 XBig12= 6.12D-12 1.94D-07.
      3 vectors produced by pass  8 Test12= 1.23D-12 1.00D-09 XBig12= 6.51D-14 1.22D-08.
      3 vectors produced by pass  9 Test12= 1.23D-12 1.00D-09 XBig12= 1.33D-14 2.48D-09.
      2 vectors produced by pass 10 Test12= 1.23D-12 1.00D-09 XBig12= 1.08D-14 1.45D-09.
 InvSVY:  IOpt=1 It=  1 EMax= 5.68D-14
 Solved reduced A of dimension  3298 with   513 vectors.
 Isotropic polarizability for W=    0.000000      833.06 Bohr**3.
 End of Minotr F.D. properties file   721 does not exist.
 End of Minotr F.D. properties file   722 does not exist.
 End of Minotr F.D. properties file   788 does not exist.

 **********************************************************************

            Population analysis using the SCF density.

 **********************************************************************

 Orbital symmetries:
 Alpha Orbitals:
       Occupied  (A) (A) (A) (A) (A) (A) (A) (A) (A) (A) (A) (A)
                 (A) (A) (A) (A) (A) (A) (A) (A) (A) (A) (A) (A)
                 (A) (A) (A) (A) (A) (A) (A) (A) (A) (A) (A) (A)
                 (A) (A) (A) (A) (A) (A) (A) (A) (A) (A) (A) (A)
                 (A) (A) (A) (A) (A) (A) (A) (A) (A) (A) (A) (A)
                 (A) (A) (A) (A) (A) (A) (A) (A) (A) (A) (A) (A)
                 (A) (A) (A) (A) (A) (A) (A) (A) (A) (A) (A) (A)
                 (A) (A) (A) (A) (A) (A) (A) (A) (A) (A) (A) (A)
                 (A) (A) (A) (A) (A) (A) (A) (A) (A) (A) (A) (A)
                 (A) (A) (A) (A) (A) (A) (A) (A) (A) (A) (A) (A)
                 (A) (A) (A) (A) (A) (A) (A) (A) (A) (A) (A) (A)
                 (A) (A) (A) (A) (A) (A) (A) (A) (A) (A) (A) (A)
                 (A) (A) (A) (A) (A) (A) (A) (A) (A) (A) (A) (A)
                 (A) (A) (A) (A) (A) (A) (A) (A) (A) (A) (A) (A)
                 (A) (A) (A) (A) (A) (A) (A) (A) (A) (A) (A) (A)
                 (A) (A) (A) (A) (A) (A) (A) (A) (A) (A) (A) (A)
                 (A) (A) (A) (A) (A) (A) (A) (A) (A) (A) (A) (A)
                 (A) (A) (A) (A) (A) (A) (A) (A) (A) (A) (A) (A)
                 (A) (A) (A) (A) (A) (A) (A) (A) (A) (A) (A) (A)
                 (A) (A) (A) (A) (A) (A) (A) (A) (A) (A) (A) (A)
                 (A) (A) (A) (A) (A) (A) (A) (A) (A) (A) (A) (A)
                 (A) (A) (A) (A) (A) (A) (A) (A) (A) (A) (A) (A)
                 (A) (A) (A) (A) (A) (A) (A) (A) (A) (A) (A) (A)
                 (A) (A) (A) (A) (A) (A) (A) (A) (A) (A) (A) (A)
                 (A) (A) (A) (A) (A) (A) (A) (A) (A) (A) (A) (A)
                 (A) (A) (A) (A) (A) (A) (A) (A) (A) (A) (A) (A)
                 (A) (A) (A) (A) (A) (A) (A) (A) (A) (A) (A) (A)
                 (A) (A) (A) (A) (A) (A) (A) (A) (A) (A) (A) (A)
                 (A) (A) (A) (A) (A) (A) (A) (A) (A)
       Virtual   (A) (A) (A) (A) (A) (A) (A) (A) (A) (A) (A) (A)
                 (A) (A) (A) (A) (A) (A) (A) (A) (A) (A) (A) (A)
                 (A) (A) (A) (A) (A) (A) (A) (A) (A) (A) (A) (A)
                 (A) (A) (A) (A) (A) (A) (A) (A) (A) (A) (A) (A)
                 (A) (A) (A) (A) (A) (A) (A) (A) (A) (A) (A) (A)
                 (A) (A) (A) (A) (A) (A) (A) (A) (A) (A) (A) (A)
                 (A) (A) (A) (A) (A) (A) (A) (A) (A) (A) (A) (A)
                 (A) (A) (A) (A) (A) (A) (A) (A) (A) (A) (A) (A)
                 (A) (A) (A) (A) (A) (A) (A) (A) (A) (A) (A) (A)
                 (A) (A) (A) (A) (A) (A) (A) (A) (A) (A) (A) (A)
                 (A) (A) (A) (A) (A) (A) (A) (A) (A) (A) (A) (A)
                 (A) (A) (A) (A) (A) (A) (A) (A) (A) (A) (A) (A)
                 (A) (A) (A) (A) (A) (A) (A) (A) (A) (A) (A) (A)
                 (A) (A) (A) (A) (A) (A) (A) (A) (A) (A) (A) (A)
                 (A) (A) (A) (A) (A) (A) (A) (A) (A) (A) (A) (A)
                 (A) (A) (A) (A) (A) (A) (A) (A) (A) (A) (A) (A)
                 (A) (A) (A) (A) (A) (A) (A) (A) (A) (A) (A) (A)
                 (A) (A) (A) (A) (A) (A) (A) (A) (A) (A) (A) (A)
                 (A) (A) (A) (A) (A) (A) (A) (A) (A) (A) (A) (A)
                 (A) (A) (A) (A) (A) (A) (A) (A) (A) (A) (A) (A)
                 (A) (A) (A) (A) (A) (A) (A) (A) (A) (A) (A) (A)
                 (A) (A) (A) (A) (A) (A) (A) (A) (A) (A) (A) (A)
                 (A) (A) (A) (A) (A) (A) (A) (A) (A) (A) (A) (A)
                 (A) (A) (A) (A) (A) (A) (A) (A) (A) (A) (A) (A)
                 (A) (A) (A) (A) (A) (A) (A) (A) (A) (A) (A) (A)
                 (A) (A) (A) (A) (A) (A) (A) (A) (A) (A) (A) (A)
                 (A) (A) (A) (A) (A) (A) (A) (A) (A) (A) (A) (A)
                 (A) (A) (A) (A) (A) (A) (A) (A) (A) (A) (A) (A)
                 (A) (A) (A) (A) (A) (A) (A) (A) (A) (A) (A) (A)
                 (A) (A) (A) (A) (A) (A) (A) (A) (A) (A) (A) (A)
                 (A) (A) (A) (A) (A) (A) (A) (A) (A) (A) (A) (A)
                 (A) (A) (A) (A) (A) (A) (A) (A) (A) (A) (A) (A)
                 (A) (A) (A) (A) (A) (A) (A) (A) (A) (A) (A) (A)
                 (A) (A) (A) (A) (A) (A) (A) (A) (A) (A) (A) (A)
                 (A) (A) (A) (A) (A) (A) (A) (A) (A) (A) (A) (A)
                 (A) (A) (A) (A) (A) (A) (A) (A) (A) (A) (A) (A)
                 (A) (A) (A) (A) (A) (A) (A) (A) (A) (A) (A) (A)
                 (A) (A) (A) (A) (A) (A) (A) (A) (A) (A) (A) (A)
                 (A) (A) (A) (A) (A) (A) (A) (A) (A) (A) (A) (A)
                 (A) (A) (A) (A) (A) (A) (A) (A) (A) (A) (A) (A)
                 (A) (A) (A) (A) (A) (A) (A) (A) (A) (A) (A) (A)
                 (A) (A) (A) (A) (A) (A) (A) (A) (A) (A) (A) (A)
                 (A) (A) (A) (A) (A) (A) (A) (A) (A) (A) (A) (A)
                 (A) (A) (A) (A) (A) (A) (A) (A) (A) (A) (A) (A)
                 (A) (A) (A) (A) (A) (A) (A) (A) (A) (A) (A) (A)
                 (A) (A) (A) (A) (A) (A) (A) (A) (A) (A) (A) (A)
                 (A) (A) (A) (A) (A) (A) (A) (A) (A) (A) (A) (A)
                 (A) (A) (A) (A) (A) (A) (A) (A) (A) (A) (A) (A)
                 (A) (A) (A) (A) (A) (A) (A) (A) (A) (A) (A) (A)
                 (A) (A) (A) (A) (A) (A) (A) (A) (A) (A) (A) (A)
                 (A) (A) (A) (A) (A) (A) (A) (A) (A) (A) (A) (A)
                 (A) (A) (A) (A) (A) (A) (A) (A) (A) (A) (A) (A)
                 (A) (A) (A) (A) (A) (A) (A) (A) (A) (A) (A) (A)
                 (A) (A) (A) (A) (A) (A) (A) (A) (A) (A) (A) (A)
                 (A) (A) (A) (A) (A) (A) (A) (A) (A) (A) (A) (A)
                 (A) (A) (A) (A) (A) (A) (A) (A) (A) (A) (A) (A)
                 (A) (A) (A) (A) (A) (A) (A) (A) (A) (A) (A) (A)
                 (A) (A) (A) (A) (A) (A) (A) (A) (A) (A) (A) (A)
                 (A) (A) (A) (A) (A) (A) (A) (A) (A) (A) (A) (A)
                 (A) (A) (A) (A) (A) (A) (A) (A) (A) (A) (A) (A)
                 (A) (A) (A) (A) (A) (A) (A) (A) (A) (A) (A) (A)
                 (A) (A) (A) (A) (A) (A) (A) (A) (A) (A) (A) (A)
                 (A) (A) (A) (A) (A) (A) (A) (A) (A) (A) (A) (A)
                 (A) (A) (A) (A) (A) (A) (A) (A) (A) (A) (A) (A)
                 (A) (A) (A) (A) (A) (A) (A) (A) (A) (A) (A) (A)
                 (A) (A) (A) (A) (A) (A) (A) (A) (A) (A) (A) (A)
                 (A) (A) (A) (A) (A) (A) (A) (A) (A) (A) (A) (A)
                 (A) (A) (A) (A) (A) (A) (A) (A) (A) (A) (A) (A)
                 (A) (A) (A) (A) (A) (A) (A) (A) (A) (A) (A) (A)
                 (A) (A) (A) (A) (A) (A) (A) (A) (A) (A) (A) (A)
                 (A) (A) (A) (A) (A) (A) (A) (A) (A) (A) (A) (A)
                 (A) (A) (A) (A) (A) (A) (A) (A) (A) (A) (A) (A)
                 (A) (A) (A) (A) (A) (A) (A) (A) (A) (A) (A) (A)
                 (A) (A) (A) (A) (A) (A) (A) (A) (A) (A) (A) (A)
                 (A) (A) (A) (A) (A) (A) (A) (A) (A) (A) (A) (A)
                 (A) (A) (A) (A) (A) (A) (A) (A) (A) (A) (A) (A)
                 (A) (A) (A) (A) (A) (A) (A) (A) (A) (A) (A) (A)
                 (A) (A) (A) (A) (A) (A) (A) (A) (A) (A) (A) (A)
                 (A) (A) (A) (A) (A) (A) (A) (A) (A) (A) (A) (A)
                 (A) (A) (A) (A) (A) (A) (A) (A) (A) (A) (A) (A)
                 (A) (A) (A) (A) (A) (A) (A) (A) (A) (A) (A) (A)
                 (A) (A) (A) (A) (A) (A) (A) (A) (A) (A) (A) (A)
                 (A) (A) (A) (A) (A) (A) (A) (A) (A) (A) (A) (A)
                 (A) (A) (A) (A) (A) (A) (A) (A) (A) (A) (A) (A)
                 (A) (A) (A) (A) (A) (A) (A) (A) (A) (A) (A) (A)
                 (A) (A) (A) (A) (A) (A) (A) (A) (A) (A) (A) (A)
                 (A) (A) (A) (A) (A) (A) (A) (A) (A) (A) (A) (A)
                 (A) (A) (A) (A) (A) (A) (A) (A) (A) (A) (A) (A)
                 (A) (A) (A) (A) (A) (A) (A) (A) (A) (A) (A) (A)
                 (A) (A) (A) (A) (A) (A) (A) (A) (A) (A) (A) (A)
                 (A) (A) (A) (A) (A) (A) (A) (A) (A) (A) (A) (A)
                 (A) (A) (A) (A) (A) (A) (A) (A) (A) (A) (A) (A)
                 (A) (A) (A) (A) (A) (A) (A) (A) (A) (A) (A) (A)
                 (A) (A) (A) (A) (A) (A) (A) (A) (A) (A) (A) (A)
                 (A) (A) (A) (A) (A) (A) (A) (A) (A) (A) (A) (A)
                 (A) (A) (A) (A) (A) (A) (A) (A) (A) (A) (A) (A)
                 (A) (A) (A) (A) (A) (A) (A) (A) (A) (A) (A) (A)
                 (A) (A) (A) (A) (A) (A) (A) (A) (A) (A) (A) (A)
                 (A) (A) (A) (A) (A) (A) (A) (A) (A) (A) (A) (A)
                 (A) (A) (A) (A) (A) (A) (A) (A) (A) (A) (A) (A)
                 (A) (A) (A) (A) (A) (A) (A) (A) (A) (A) (A) (A)
                 (A) (A) (A) (A) (A) (A) (A) (A) (A) (A) (A) (A)
                 (A) (A) (A) (A) (A) (A) (A) (A) (A) (A) (A) (A)
                 (A) (A) (A) (A) (A) (A) (A) (A) (A) (A) (A) (A)
                 (A) (A) (A) (A) (A) (A) (A) (A) (A) (A) (A) (A)
                 (A) (A) (A) (A) (A) (A) (A) (A) (A) (A) (A) (A)
                 (A) (A) (A) (A) (A) (A) (A) (A) (A) (A) (A) (A)
                 (A) (A) (A) (A) (A) (A) (A) (A) (A) (A) (A) (A)
                 (A) (A) (A) (A) (A) (A) (A) (A) (A) (A) (A) (A)
                 (A) (A) (A) (A) (A) (A) (A) (A) (A) (A) (A) (A)
                 (A) (A) (A) (A) (A) (A) (A) (A) (A) (A) (A) (A)
                 (A) (A) (A) (A) (A) (A) (A) (A) (A) (A) (A) (A)
                 (A) (A) (A) (A) (A) (A) (A) (A) (A) (A) (A) (A)
                 (A) (A) (A) (A) (A) (A) (A) (A) (A) (A) (A) (A)
                 (A) (A) (A) (A) (A) (A) (A) (A) (A) (A) (A) (A)
                 (A) (A) (A) (A) (A) (A) (A) (A) (A) (A) (A) (A)
                 (A) (A) (A) (A) (A) (A) (A) (A) (A) (A) (A) (A)
                 (A) (A) (A) (A) (A) (A) (A) (A) (A) (A) (A) (A)
                 (A) (A) (A) (A) (A) (A) (A) (A) (A) (A) (A) (A)
                 (A) (A) (A) (A) (A) (A) (A) (A) (A) (A) (A) (A)
                 (A) (A) (A) (A) (A) (A) (A) (A) (A) (A) (A) (A)
                 (A) (A) (A) (A) (A) (A) (A) (A) (A) (A) (A) (A)
                 (A) (A) (A) (A) (A) (A) (A) (A) (A) (A) (A) (A)
                 (A) (A) (A) (A) (A) (A) (A) (A) (A) (A) (A) (A)
                 (A) (A) (A) (A) (A) (A) (A) (A) (A) (A) (A) (A)
                 (A) (A) (A) (A) (A) (A) (A) (A) (A) (A) (A) (A)
                 (A) (A) (A) (A) (A) (A) (A) (A) (A) (A) (A) (A)
                 (A) (A) (A) (A) (A) (A) (A) (A) (A) (A) (A) (A)
                 (A) (A) (A) (A) (A) (A) (A) (A) (A) (A) (A) (A)
                 (A) (A) (A) (A) (A) (A) (A) (A) (A) (A) (A) (A)
                 (A) (A) (A) (A) (A) (A) (A) (A) (A) (A) (A) (A)
                 (A) (A) (A) (A) (A) (A) (A) (A) (A) (A) (A) (A)
                 (A) (A) (A) (A) (A) (A) (A) (A) (A) (A) (A) (A)
                 (A) (A) (A) (A) (A) (A) (A) (A) (A) (A) (A) (A)
                 (A) (A) (A) (A) (A) (A) (A) (A) (A) (A) (A) (A)
                 (A) (A) (A) (A) (A) (A) (A) (A) (A) (A) (A) (A)
                 (A) (A) (A) (A) (A) (A) (A) (A) (A) (A) (A) (A)
                 (A) (A) (A) (A) (A) (A) (A) (A) (A) (A) (A) (A)
                 (A) (A) (A) (A) (A) (A) (A) (A) (A) (A) (A) (A)
                 (A) (A) (A) (A) (A) (A) (A) (A) (A) (A) (A) (A)
                 (A) (A) (A) (A) (A) (A) (A) (A) (A) (A) (A) (A)
                 (A) (A) (A) (A) (A) (A) (A) (A) (A) (A) (A) (A)
                 (A) (A) (A) (A) (A) (A) (A) (A) (A) (A) (A) (A)
                 (A) (A) (A) (A) (A) (A) (A) (A) (A) (A) (A) (A)
                 (A) (A) (A) (A) (A) (A) (A) (A) (A) (A) (A) (A)
                 (A) (A) (A) (A) (A) (A) (A) (A) (A) (A) (A) (A)
                 (A) (A) (A) (A) (A) (A) (A) (A) (A) (A) (A) (A)
                 (A) (A) (A) (A) (A) (A) (A) (A) (A) (A) (A) (A)
                 (A) (A) (A)
 Beta  Orbitals:
       Occupied  (A) (A) (A) (A) (A) (A) (A) (A) (A) (A) (A) (A)
                 (A) (A) (A) (A) (A) (A) (A) (A) (A) (A) (A) (A)
                 (A) (A) (A) (A) (A) (A) (A) (A) (A) (A) (A) (A)
                 (A) (A) (A) (A) (A) (A) (A) (A) (A) (A) (A) (A)
                 (A) (A) (A) (A) (A) (A) (A) (A) (A) (A) (A) (A)
                 (A) (A) (A) (A) (A) (A) (A) (A) (A) (A) (A) (A)
                 (A) (A) (A) (A) (A) (A) (A) (A) (A) (A) (A) (A)
                 (A) (A) (A) (A) (A) (A) (A) (A) (A) (A) (A) (A)
                 (A) (A) (A) (A) (A) (A) (A) (A) (A) (A) (A) (A)
                 (A) (A) (A) (A) (A) (A) (A) (A) (A) (A) (A) (A)
                 (A) (A) (A) (A) (A) (A) (A) (A) (A) (A) (A) (A)
                 (A) (A) (A) (A) (A) (A) (A) (A) (A) (A) (A) (A)
                 (A) (A) (A) (A) (A) (A) (A) (A) (A) (A) (A) (A)
                 (A) (A) (A) (A) (A) (A) (A) (A) (A) (A) (A) (A)
                 (A) (A) (A) (A) (A) (A) (A) (A) (A) (A) (A) (A)
                 (A) (A) (A) (A) (A) (A) (A) (A) (A) (A) (A) (A)
                 (A) (A) (A) (A) (A) (A) (A) (A) (A) (A) (A) (A)
                 (A) (A) (A) (A) (A) (A) (A) (A) (A) (A) (A) (A)
                 (A) (A) (A) (A) (A) (A) (A) (A) (A) (A) (A) (A)
                 (A) (A) (A) (A) (A) (A) (A) (A) (A) (A) (A) (A)
                 (A) (A) (A) (A) (A) (A) (A) (A) (A) (A) (A) (A)
                 (A) (A) (A) (A) (A) (A) (A) (A) (A) (A) (A) (A)
                 (A) (A) (A) (A) (A) (A) (A) (A) (A) (A) (A) (A)
                 (A) (A) (A) (A) (A) (A) (A) (A) (A) (A) (A) (A)
                 (A) (A) (A) (A) (A) (A) (A) (A) (A) (A) (A) (A)
                 (A) (A) (A) (A) (A) (A) (A) (A) (A) (A) (A) (A)
                 (A) (A) (A) (A) (A) (A) (A) (A) (A) (A) (A) (A)
                 (A) (A) (A) (A) (A) (A) (A) (A) (A) (A) (A) (A)
                 (A) (A) (A) (A) (A) (A) (A) (A)
       Virtual   (A) (A) (A) (A) (A) (A) (A) (A) (A) (A) (A) (A)
                 (A) (A) (A) (A) (A) (A) (A) (A) (A) (A) (A) (A)
                 (A) (A) (A) (A) (A) (A) (A) (A) (A) (A) (A) (A)
                 (A) (A) (A) (A) (A) (A) (A) (A) (A) (A) (A) (A)
                 (A) (A) (A) (A) (A) (A) (A) (A) (A) (A) (A) (A)
                 (A) (A) (A) (A) (A) (A) (A) (A) (A) (A) (A) (A)
                 (A) (A) (A) (A) (A) (A) (A) (A) (A) (A) (A) (A)
                 (A) (A) (A) (A) (A) (A) (A) (A) (A) (A) (A) (A)
                 (A) (A) (A) (A) (A) (A) (A) (A) (A) (A) (A) (A)
                 (A) (A) (A) (A) (A) (A) (A) (A) (A) (A) (A) (A)
                 (A) (A) (A) (A) (A) (A) (A) (A) (A) (A) (A) (A)
                 (A) (A) (A) (A) (A) (A) (A) (A) (A) (A) (A) (A)
                 (A) (A) (A) (A) (A) (A) (A) (A) (A) (A) (A) (A)
                 (A) (A) (A) (A) (A) (A) (A) (A) (A) (A) (A) (A)
                 (A) (A) (A) (A) (A) (A) (A) (A) (A) (A) (A) (A)
                 (A) (A) (A) (A) (A) (A) (A) (A) (A) (A) (A) (A)
                 (A) (A) (A) (A) (A) (A) (A) (A) (A) (A) (A) (A)
                 (A) (A) (A) (A) (A) (A) (A) (A) (A) (A) (A) (A)
                 (A) (A) (A) (A) (A) (A) (A) (A) (A) (A) (A) (A)
                 (A) (A) (A) (A) (A) (A) (A) (A) (A) (A) (A) (A)
                 (A) (A) (A) (A) (A) (A) (A) (A) (A) (A) (A) (A)
                 (A) (A) (A) (A) (A) (A) (A) (A) (A) (A) (A) (A)
                 (A) (A) (A) (A) (A) (A) (A) (A) (A) (A) (A) (A)
                 (A) (A) (A) (A) (A) (A) (A) (A) (A) (A) (A) (A)
                 (A) (A) (A) (A) (A) (A) (A) (A) (A) (A) (A) (A)
                 (A) (A) (A) (A) (A) (A) (A) (A) (A) (A) (A) (A)
                 (A) (A) (A) (A) (A) (A) (A) (A) (A) (A) (A) (A)
                 (A) (A) (A) (A) (A) (A) (A) (A) (A) (A) (A) (A)
                 (A) (A) (A) (A) (A) (A) (A) (A) (A) (A) (A) (A)
                 (A) (A) (A) (A) (A) (A) (A) (A) (A) (A) (A) (A)
                 (A) (A) (A) (A) (A) (A) (A) (A) (A) (A) (A) (A)
                 (A) (A) (A) (A) (A) (A) (A) (A) (A) (A) (A) (A)
                 (A) (A) (A) (A) (A) (A) (A) (A) (A) (A) (A) (A)
                 (A) (A) (A) (A) (A) (A) (A) (A) (A) (A) (A) (A)
                 (A) (A) (A) (A) (A) (A) (A) (A) (A) (A) (A) (A)
                 (A) (A) (A) (A) (A) (A) (A) (A) (A) (A) (A) (A)
                 (A) (A) (A) (A) (A) (A) (A) (A) (A) (A) (A) (A)
                 (A) (A) (A) (A) (A) (A) (A) (A) (A) (A) (A) (A)
                 (A) (A) (A) (A) (A) (A) (A) (A) (A) (A) (A) (A)
                 (A) (A) (A) (A) (A) (A) (A) (A) (A) (A) (A) (A)
                 (A) (A) (A) (A) (A) (A) (A) (A) (A) (A) (A) (A)
                 (A) (A) (A) (A) (A) (A) (A) (A) (A) (A) (A) (A)
                 (A) (A) (A) (A) (A) (A) (A) (A) (A) (A) (A) (A)
                 (A) (A) (A) (A) (A) (A) (A) (A) (A) (A) (A) (A)
                 (A) (A) (A) (A) (A) (A) (A) (A) (A) (A) (A) (A)
                 (A) (A) (A) (A) (A) (A) (A) (A) (A) (A) (A) (A)
                 (A) (A) (A) (A) (A) (A) (A) (A) (A) (A) (A) (A)
                 (A) (A) (A) (A) (A) (A) (A) (A) (A) (A) (A) (A)
                 (A) (A) (A) (A) (A) (A) (A) (A) (A) (A) (A) (A)
                 (A) (A) (A) (A) (A) (A) (A) (A) (A) (A) (A) (A)
                 (A) (A) (A) (A) (A) (A) (A) (A) (A) (A) (A) (A)
                 (A) (A) (A) (A) (A) (A) (A) (A) (A) (A) (A) (A)
                 (A) (A) (A) (A) (A) (A) (A) (A) (A) (A) (A) (A)
                 (A) (A) (A) (A) (A) (A) (A) (A) (A) (A) (A) (A)
                 (A) (A) (A) (A) (A) (A) (A) (A) (A) (A) (A) (A)
                 (A) (A) (A) (A) (A) (A) (A) (A) (A) (A) (A) (A)
                 (A) (A) (A) (A) (A) (A) (A) (A) (A) (A) (A) (A)
                 (A) (A) (A) (A) (A) (A) (A) (A) (A) (A) (A) (A)
                 (A) (A) (A) (A) (A) (A) (A) (A) (A) (A) (A) (A)
                 (A) (A) (A) (A) (A) (A) (A) (A) (A) (A) (A) (A)
                 (A) (A) (A) (A) (A) (A) (A) (A) (A) (A) (A) (A)
                 (A) (A) (A) (A) (A) (A) (A) (A) (A) (A) (A) (A)
                 (A) (A) (A) (A) (A) (A) (A) (A) (A) (A) (A) (A)
                 (A) (A) (A) (A) (A) (A) (A) (A) (A) (A) (A) (A)
                 (A) (A) (A) (A) (A) (A) (A) (A) (A) (A) (A) (A)
                 (A) (A) (A) (A) (A) (A) (A) (A) (A) (A) (A) (A)
                 (A) (A) (A) (A) (A) (A) (A) (A) (A) (A) (A) (A)
                 (A) (A) (A) (A) (A) (A) (A) (A) (A) (A) (A) (A)
                 (A) (A) (A) (A) (A) (A) (A) (A) (A) (A) (A) (A)
                 (A) (A) (A) (A) (A) (A) (A) (A) (A) (A) (A) (A)
                 (A) (A) (A) (A) (A) (A) (A) (A) (A) (A) (A) (A)
                 (A) (A) (A) (A) (A) (A) (A) (A) (A) (A) (A) (A)
                 (A) (A) (A) (A) (A) (A) (A) (A) (A) (A) (A) (A)
                 (A) (A) (A) (A) (A) (A) (A) (A) (A) (A) (A) (A)
                 (A) (A) (A) (A) (A) (A) (A) (A) (A) (A) (A) (A)
                 (A) (A) (A) (A) (A) (A) (A) (A) (A) (A) (A) (A)
                 (A) (A) (A) (A) (A) (A) (A) (A) (A) (A) (A) (A)
                 (A) (A) (A) (A) (A) (A) (A) (A) (A) (A) (A) (A)
                 (A) (A) (A) (A) (A) (A) (A) (A) (A) (A) (A) (A)
                 (A) (A) (A) (A) (A) (A) (A) (A) (A) (A) (A) (A)
                 (A) (A) (A) (A) (A) (A) (A) (A) (A) (A) (A) (A)
                 (A) (A) (A) (A) (A) (A) (A) (A) (A) (A) (A) (A)
                 (A) (A) (A) (A) (A) (A) (A) (A) (A) (A) (A) (A)
                 (A) (A) (A) (A) (A) (A) (A) (A) (A) (A) (A) (A)
                 (A) (A) (A) (A) (A) (A) (A) (A) (A) (A) (A) (A)
                 (A) (A) (A) (A) (A) (A) (A) (A) (A) (A) (A) (A)
                 (A) (A) (A) (A) (A) (A) (A) (A) (A) (A) (A) (A)
                 (A) (A) (A) (A) (A) (A) (A) (A) (A) (A) (A) (A)
                 (A) (A) (A) (A) (A) (A) (A) (A) (A) (A) (A) (A)
                 (A) (A) (A) (A) (A) (A) (A) (A) (A) (A) (A) (A)
                 (A) (A) (A) (A) (A) (A) (A) (A) (A) (A) (A) (A)
                 (A) (A) (A) (A) (A) (A) (A) (A) (A) (A) (A) (A)
                 (A) (A) (A) (A) (A) (A) (A) (A) (A) (A) (A) (A)
                 (A) (A) (A) (A) (A) (A) (A) (A) (A) (A) (A) (A)
                 (A) (A) (A) (A) (A) (A) (A) (A) (A) (A) (A) (A)
                 (A) (A) (A) (A) (A) (A) (A) (A) (A) (A) (A) (A)
                 (A) (A) (A) (A) (A) (A) (A) (A) (A) (A) (A) (A)
                 (A) (A) (A) (A) (A) (A) (A) (A) (A) (A) (A) (A)
                 (A) (A) (A) (A) (A) (A) (A) (A) (A) (A) (A) (A)
                 (A) (A) (A) (A) (A) (A) (A) (A) (A) (A) (A) (A)
                 (A) (A) (A) (A) (A) (A) (A) (A) (A) (A) (A) (A)
                 (A) (A) (A) (A) (A) (A) (A) (A) (A) (A) (A) (A)
                 (A) (A) (A) (A) (A) (A) (A) (A) (A) (A) (A) (A)
                 (A) (A) (A) (A) (A) (A) (A) (A) (A) (A) (A) (A)
                 (A) (A) (A) (A) (A) (A) (A) (A) (A) (A) (A) (A)
                 (A) (A) (A) (A) (A) (A) (A) (A) (A) (A) (A) (A)
                 (A) (A) (A) (A) (A) (A) (A) (A) (A) (A) (A) (A)
                 (A) (A) (A) (A) (A) (A) (A) (A) (A) (A) (A) (A)
                 (A) (A) (A) (A) (A) (A) (A) (A) (A) (A) (A) (A)
                 (A) (A) (A) (A) (A) (A) (A) (A) (A) (A) (A) (A)
                 (A) (A) (A) (A) (A) (A) (A) (A) (A) (A) (A) (A)
                 (A) (A) (A) (A) (A) (A) (A) (A) (A) (A) (A) (A)
                 (A) (A) (A) (A) (A) (A) (A) (A) (A) (A) (A) (A)
                 (A) (A) (A) (A) (A) (A) (A) (A) (A) (A) (A) (A)
                 (A) (A) (A) (A) (A) (A) (A) (A) (A) (A) (A) (A)
                 (A) (A) (A) (A) (A) (A) (A) (A) (A) (A) (A) (A)
                 (A) (A) (A) (A) (A) (A) (A) (A) (A) (A) (A) (A)
                 (A) (A) (A) (A) (A) (A) (A) (A) (A) (A) (A) (A)
                 (A) (A) (A) (A) (A) (A) (A) (A) (A) (A) (A) (A)
                 (A) (A) (A) (A) (A) (A) (A) (A) (A) (A) (A) (A)
                 (A) (A) (A) (A) (A) (A) (A) (A) (A) (A) (A) (A)
                 (A) (A) (A) (A) (A) (A) (A) (A) (A) (A) (A) (A)
                 (A) (A) (A) (A) (A) (A) (A) (A) (A) (A) (A) (A)
                 (A) (A) (A) (A) (A) (A) (A) (A) (A) (A) (A) (A)
                 (A) (A) (A) (A) (A) (A) (A) (A) (A) (A) (A) (A)
                 (A) (A) (A) (A) (A) (A) (A) (A) (A) (A) (A) (A)
                 (A) (A) (A) (A) (A) (A) (A) (A) (A) (A) (A) (A)
                 (A) (A) (A) (A) (A) (A) (A) (A) (A) (A) (A) (A)
                 (A) (A) (A) (A) (A) (A) (A) (A) (A) (A) (A) (A)
                 (A) (A) (A) (A) (A) (A) (A) (A) (A) (A) (A) (A)
                 (A) (A) (A) (A) (A) (A) (A) (A) (A) (A) (A) (A)
                 (A) (A) (A) (A) (A) (A) (A) (A) (A) (A) (A) (A)
                 (A) (A) (A) (A) (A) (A) (A) (A) (A) (A) (A) (A)
                 (A) (A) (A) (A) (A) (A) (A) (A) (A) (A) (A) (A)
                 (A) (A) (A) (A) (A) (A) (A) (A) (A) (A) (A) (A)
                 (A) (A) (A) (A) (A) (A) (A) (A) (A) (A) (A) (A)
                 (A) (A) (A) (A) (A) (A) (A) (A) (A) (A) (A) (A)
                 (A) (A) (A) (A) (A) (A) (A) (A) (A) (A) (A) (A)
                 (A) (A) (A) (A) (A) (A) (A) (A) (A) (A) (A) (A)
                 (A) (A) (A) (A) (A) (A) (A) (A) (A) (A) (A) (A)
                 (A) (A) (A) (A) (A) (A) (A) (A) (A) (A) (A) (A)
                 (A) (A) (A) (A) (A) (A) (A) (A) (A) (A) (A) (A)
                 (A) (A) (A) (A) (A) (A) (A) (A) (A) (A) (A) (A)
                 (A) (A) (A) (A) (A) (A) (A) (A) (A) (A) (A) (A)
                 (A) (A) (A) (A) (A) (A) (A) (A) (A) (A) (A) (A)
                 (A) (A) (A) (A) (A) (A) (A) (A) (A) (A) (A) (A)
                 (A) (A) (A) (A) (A) (A) (A) (A) (A) (A) (A) (A)
                 (A) (A) (A) (A) (A) (A) (A) (A) (A) (A) (A) (A)
                 (A) (A) (A) (A)
 The electronic state is 2-A.
 Alpha  occ. eigenvalues -- -277.52784 -77.11442 -32.84770 -28.50593 -28.50578
 Alpha  occ. eigenvalues --  -28.50453 -19.13851 -19.12707 -19.11404 -19.11082
 Alpha  occ. eigenvalues --  -19.09729 -19.09676 -19.09618 -19.08678 -19.08364
 Alpha  occ. eigenvalues --  -19.08091 -19.07917 -19.06894 -19.02205 -19.01816
 Alpha  occ. eigenvalues --  -14.37549 -14.37196 -14.37168 -14.36775 -14.36386
 Alpha  occ. eigenvalues --  -14.36359 -14.35848 -14.33222 -14.32359 -14.32207
 Alpha  occ. eigenvalues --  -14.31142 -14.29389 -14.29040 -14.28378 -14.27146
 Alpha  occ. eigenvalues --  -14.26890 -10.31834 -10.30702 -10.28594 -10.27560
 Alpha  occ. eigenvalues --  -10.26981 -10.26576 -10.26431 -10.26211 -10.26192
 Alpha  occ. eigenvalues --  -10.26024 -10.25806 -10.25742 -10.25564 -10.25322
 Alpha  occ. eigenvalues --  -10.25252 -10.24983 -10.24416 -10.23504 -10.23305
 Alpha  occ. eigenvalues --  -10.22993 -10.22529 -10.22375 -10.22372 -10.22328
 Alpha  occ. eigenvalues --  -10.22311 -10.22304 -10.22248 -10.21727 -10.21701
 Alpha  occ. eigenvalues --  -10.21682 -10.21519 -10.21510 -10.21372 -10.21171
 Alpha  occ. eigenvalues --  -10.20579 -10.20561 -10.20360 -10.20259 -10.19940
 Alpha  occ. eigenvalues --  -10.19831 -10.19648 -10.19608 -10.19398 -10.19304
 Alpha  occ. eigenvalues --  -10.19196 -10.19186 -10.19168 -10.18878 -10.18840
 Alpha  occ. eigenvalues --  -10.18633 -10.18593 -10.18397 -10.18323 -10.18197
 Alpha  occ. eigenvalues --  -10.18197 -10.17932 -10.16340  -6.59536  -4.75882
 Alpha  occ. eigenvalues --   -4.75745  -4.75492  -3.77182  -2.46186  -2.45357
 Alpha  occ. eigenvalues --   -2.45306  -1.08169  -1.07153  -1.06705  -1.04810
 Alpha  occ. eigenvalues --   -1.03611  -1.03561  -1.03393  -1.03158  -1.01730
 Alpha  occ. eigenvalues --   -1.01649  -1.01493  -1.00996  -1.00141  -1.00025
 Alpha  occ. eigenvalues --   -1.00016  -0.98475  -0.97963  -0.95256  -0.95092
 Alpha  occ. eigenvalues --   -0.94171  -0.92792  -0.91413  -0.91067  -0.90793
 Alpha  occ. eigenvalues --   -0.90141  -0.89656  -0.89280  -0.87858  -0.87093
 Alpha  occ. eigenvalues --   -0.86956  -0.86845  -0.85517  -0.84946  -0.84612
 Alpha  occ. eigenvalues --   -0.84252  -0.83621  -0.82822  -0.82020  -0.79816
 Alpha  occ. eigenvalues --   -0.79291  -0.78703  -0.78176  -0.77526  -0.76768
 Alpha  occ. eigenvalues --   -0.76473  -0.75465  -0.75182  -0.74194  -0.73898
 Alpha  occ. eigenvalues --   -0.73747  -0.73410  -0.72966  -0.72559  -0.72234
 Alpha  occ. eigenvalues --   -0.71108  -0.70517  -0.69979  -0.69171  -0.68659
 Alpha  occ. eigenvalues --   -0.67613  -0.66666  -0.66023  -0.65698  -0.64229
 Alpha  occ. eigenvalues --   -0.64181  -0.64008  -0.63286  -0.62750  -0.62467
 Alpha  occ. eigenvalues --   -0.61641  -0.61384  -0.61221  -0.60440  -0.59784
 Alpha  occ. eigenvalues --   -0.59527  -0.59320  -0.59091  -0.58417  -0.58273
 Alpha  occ. eigenvalues --   -0.58170  -0.57904  -0.57512  -0.57307  -0.56951
 Alpha  occ. eigenvalues --   -0.56471  -0.56070  -0.55925  -0.54742  -0.54166
 Alpha  occ. eigenvalues --   -0.53993  -0.53796  -0.53522  -0.53425  -0.53199
 Alpha  occ. eigenvalues --   -0.52895  -0.52489  -0.52395  -0.52081  -0.51797
 Alpha  occ. eigenvalues --   -0.51349  -0.51176  -0.51026  -0.51002  -0.50654
 Alpha  occ. eigenvalues --   -0.50415  -0.50193  -0.50127  -0.49870  -0.49536
 Alpha  occ. eigenvalues --   -0.49505  -0.49269  -0.49058  -0.48855  -0.48448
 Alpha  occ. eigenvalues --   -0.48224  -0.47998  -0.47743  -0.47530  -0.47237
 Alpha  occ. eigenvalues --   -0.46993  -0.46816  -0.46721  -0.46626  -0.46456
 Alpha  occ. eigenvalues --   -0.46107  -0.46005  -0.45623  -0.45443  -0.45366
 Alpha  occ. eigenvalues --   -0.45110  -0.45090  -0.44968  -0.44611  -0.44533
 Alpha  occ. eigenvalues --   -0.44175  -0.44170  -0.44113  -0.43838  -0.43769
 Alpha  occ. eigenvalues --   -0.43717  -0.43620  -0.43322  -0.43296  -0.43211
 Alpha  occ. eigenvalues --   -0.43089  -0.42923  -0.42812  -0.42473  -0.42365
 Alpha  occ. eigenvalues --   -0.42174  -0.42033  -0.41972  -0.41770  -0.41688
 Alpha  occ. eigenvalues --   -0.41566  -0.41425  -0.41251  -0.41131  -0.40960
 Alpha  occ. eigenvalues --   -0.40809  -0.40762  -0.40656  -0.40451  -0.40280
 Alpha  occ. eigenvalues --   -0.40115  -0.40026  -0.39685  -0.39632  -0.39431
 Alpha  occ. eigenvalues --   -0.39404  -0.39181  -0.39093  -0.39005  -0.38847
 Alpha  occ. eigenvalues --   -0.38634  -0.38540  -0.38262  -0.38201  -0.37991
 Alpha  occ. eigenvalues --   -0.37888  -0.37755  -0.37589  -0.37385  -0.37183
 Alpha  occ. eigenvalues --   -0.37063  -0.36777  -0.36627  -0.36553  -0.36333
 Alpha  occ. eigenvalues --   -0.36175  -0.35913  -0.35704  -0.35607  -0.35349
 Alpha  occ. eigenvalues --   -0.34901  -0.34742  -0.34693  -0.34402  -0.34169
 Alpha  occ. eigenvalues --   -0.33916  -0.33443  -0.33406  -0.33020  -0.32909
 Alpha  occ. eigenvalues --   -0.32295  -0.32279  -0.32042  -0.31847  -0.31750
 Alpha  occ. eigenvalues --   -0.31585  -0.31098  -0.30984  -0.30845  -0.30268
 Alpha  occ. eigenvalues --   -0.30215  -0.29564  -0.28885  -0.28742  -0.28404
 Alpha  occ. eigenvalues --   -0.28130  -0.27917  -0.27642  -0.27415  -0.27365
 Alpha  occ. eigenvalues --   -0.26891  -0.26822  -0.26809  -0.26618  -0.26401
 Alpha  occ. eigenvalues --   -0.26069  -0.25862  -0.25377  -0.25257  -0.24935
 Alpha  occ. eigenvalues --   -0.24900  -0.24862  -0.24565  -0.24391  -0.23983
 Alpha  occ. eigenvalues --   -0.23884  -0.22857  -0.22612  -0.21669  -0.20039
 Alpha virt. eigenvalues --   -0.11310  -0.07806  -0.05561  -0.04993  -0.02879
 Alpha virt. eigenvalues --   -0.01805  -0.01148  -0.00648  -0.00317  -0.00144
 Alpha virt. eigenvalues --    0.00370   0.00530   0.00916   0.01187   0.01264
 Alpha virt. eigenvalues --    0.01589   0.01840   0.02076   0.02271   0.02561
 Alpha virt. eigenvalues --    0.02955   0.03046   0.03231   0.03661   0.03925
 Alpha virt. eigenvalues --    0.04064   0.04204   0.04584   0.04623   0.05022
 Alpha virt. eigenvalues --    0.05295   0.05348   0.05636   0.05870   0.06055
 Alpha virt. eigenvalues --    0.06201   0.06273   0.06653   0.06757   0.06921
 Alpha virt. eigenvalues --    0.07082   0.07297   0.07487   0.07650   0.07832
 Alpha virt. eigenvalues --    0.08087   0.08363   0.08560   0.08727   0.09034
 Alpha virt. eigenvalues --    0.09138   0.09380   0.09518   0.09613   0.09826
 Alpha virt. eigenvalues --    0.10168   0.10221   0.10321   0.10485   0.10620
 Alpha virt. eigenvalues --    0.10835   0.11114   0.11237   0.11345   0.11638
 Alpha virt. eigenvalues --    0.11803   0.11886   0.11932   0.12192   0.12350
 Alpha virt. eigenvalues --    0.12682   0.12776   0.13072   0.13143   0.13335
 Alpha virt. eigenvalues --    0.13479   0.13683   0.13761   0.13914   0.14167
 Alpha virt. eigenvalues --    0.14334   0.14421   0.14501   0.14554   0.14730
 Alpha virt. eigenvalues --    0.14984   0.15122   0.15414   0.15594   0.15630
 Alpha virt. eigenvalues --    0.15917   0.16129   0.16253   0.16555   0.16609
 Alpha virt. eigenvalues --    0.16665   0.16749   0.16912   0.16979   0.17144
 Alpha virt. eigenvalues --    0.17342   0.17445   0.17606   0.17931   0.18036
 Alpha virt. eigenvalues --    0.18130   0.18212   0.18425   0.18656   0.18805
 Alpha virt. eigenvalues --    0.18993   0.19115   0.19316   0.19399   0.19533
 Alpha virt. eigenvalues --    0.19700   0.19820   0.19879   0.20099   0.20246
 Alpha virt. eigenvalues --    0.20664   0.20775   0.20837   0.21031   0.21166
 Alpha virt. eigenvalues --    0.21438   0.21542   0.21598   0.21728   0.22098
 Alpha virt. eigenvalues --    0.22200   0.22256   0.22476   0.22702   0.22759
 Alpha virt. eigenvalues --    0.22992   0.23136   0.23378   0.23435   0.23827
 Alpha virt. eigenvalues --    0.23890   0.24013   0.24212   0.24310   0.24663
 Alpha virt. eigenvalues --    0.24915   0.25132   0.25196   0.25344   0.25579
 Alpha virt. eigenvalues --    0.25659   0.26012   0.26148   0.26378   0.26548
 Alpha virt. eigenvalues --    0.26724   0.27090   0.27211   0.27451   0.27704
 Alpha virt. eigenvalues --    0.27774   0.27902   0.28183   0.28287   0.28461
 Alpha virt. eigenvalues --    0.28598   0.28752   0.29054   0.29209   0.29239
 Alpha virt. eigenvalues --    0.29337   0.29580   0.29800   0.30069   0.30121
 Alpha virt. eigenvalues --    0.30260   0.30712   0.30928   0.31096   0.31195
 Alpha virt. eigenvalues --    0.31261   0.31713   0.31925   0.32045   0.32063
 Alpha virt. eigenvalues --    0.32370   0.32590   0.32685   0.32860   0.33276
 Alpha virt. eigenvalues --    0.33339   0.33454   0.33754   0.33901   0.34009
 Alpha virt. eigenvalues --    0.34123   0.34441   0.34604   0.34803   0.35229
 Alpha virt. eigenvalues --    0.35285   0.35530   0.35563   0.35699   0.35928
 Alpha virt. eigenvalues --    0.36049   0.36351   0.36642   0.36708   0.36727
 Alpha virt. eigenvalues --    0.36977   0.37210   0.37421   0.37666   0.37735
 Alpha virt. eigenvalues --    0.37847   0.38201   0.38420   0.38577   0.38671
 Alpha virt. eigenvalues --    0.38742   0.38939   0.39025   0.39241   0.39342
 Alpha virt. eigenvalues --    0.39420   0.39692   0.39839   0.40089   0.40204
 Alpha virt. eigenvalues --    0.40301   0.40457   0.40642   0.40858   0.41001
 Alpha virt. eigenvalues --    0.41206   0.41500   0.41549   0.41614   0.41883
 Alpha virt. eigenvalues --    0.42137   0.42363   0.42506   0.42622   0.42884
 Alpha virt. eigenvalues --    0.43077   0.43256   0.43467   0.43517   0.43787
 Alpha virt. eigenvalues --    0.43941   0.44101   0.44228   0.44394   0.44463
 Alpha virt. eigenvalues --    0.44601   0.44682   0.44813   0.44912   0.44979
 Alpha virt. eigenvalues --    0.45178   0.45678   0.45748   0.45985   0.46195
 Alpha virt. eigenvalues --    0.46314   0.46491   0.46752   0.46961   0.47252
 Alpha virt. eigenvalues --    0.47557   0.47687   0.47896   0.48062   0.48260
 Alpha virt. eigenvalues --    0.48519   0.48784   0.48997   0.49169   0.49295
 Alpha virt. eigenvalues --    0.49450   0.49734   0.49797   0.49983   0.50092
 Alpha virt. eigenvalues --    0.50306   0.50652   0.50769   0.50906   0.51003
 Alpha virt. eigenvalues --    0.51073   0.51234   0.51365   0.51434   0.51729
 Alpha virt. eigenvalues --    0.51806   0.51871   0.52087   0.52149   0.52319
 Alpha virt. eigenvalues --    0.52505   0.52775   0.52858   0.52972   0.53134
 Alpha virt. eigenvalues --    0.53173   0.53245   0.53440   0.53472   0.53647
 Alpha virt. eigenvalues --    0.53740   0.53827   0.54005   0.54323   0.54530
 Alpha virt. eigenvalues --    0.54714   0.54735   0.54892   0.54981   0.55174
 Alpha virt. eigenvalues --    0.55221   0.55344   0.55650   0.55869   0.56116
 Alpha virt. eigenvalues --    0.56204   0.56365   0.56501   0.56648   0.56916
 Alpha virt. eigenvalues --    0.56951   0.57177   0.57214   0.57403   0.57424
 Alpha virt. eigenvalues --    0.57704   0.57724   0.57927   0.58060   0.58207
 Alpha virt. eigenvalues --    0.58244   0.58388   0.58433   0.58563   0.58783
 Alpha virt. eigenvalues --    0.58807   0.58955   0.59169   0.59291   0.59410
 Alpha virt. eigenvalues --    0.59487   0.59597   0.59685   0.59780   0.59936
 Alpha virt. eigenvalues --    0.59948   0.60069   0.60149   0.60316   0.60487
 Alpha virt. eigenvalues --    0.60559   0.60665   0.60952   0.60981   0.61175
 Alpha virt. eigenvalues --    0.61399   0.61513   0.61625   0.61821   0.62024
 Alpha virt. eigenvalues --    0.62067   0.62243   0.62349   0.62395   0.62421
 Alpha virt. eigenvalues --    0.62635   0.62735   0.63010   0.63322   0.63522
 Alpha virt. eigenvalues --    0.63583   0.63712   0.63927   0.63971   0.64260
 Alpha virt. eigenvalues --    0.64303   0.64543   0.64752   0.64810   0.64915
 Alpha virt. eigenvalues --    0.65000   0.65288   0.65465   0.65681   0.65873
 Alpha virt. eigenvalues --    0.66042   0.66222   0.66310   0.66633   0.66750
 Alpha virt. eigenvalues --    0.66884   0.67086   0.67185   0.67286   0.67481
 Alpha virt. eigenvalues --    0.67718   0.67861   0.67962   0.68246   0.68351
 Alpha virt. eigenvalues --    0.68415   0.68692   0.68856   0.68899   0.69217
 Alpha virt. eigenvalues --    0.69924   0.70020   0.70122   0.70246   0.70468
 Alpha virt. eigenvalues --    0.70643   0.70851   0.71009   0.71179   0.71563
 Alpha virt. eigenvalues --    0.71813   0.71987   0.72250   0.72376   0.72551
 Alpha virt. eigenvalues --    0.72846   0.72858   0.73024   0.73228   0.73260
 Alpha virt. eigenvalues --    0.73542   0.73715   0.73910   0.74145   0.74465
 Alpha virt. eigenvalues --    0.74812   0.74912   0.75170   0.75569   0.75803
 Alpha virt. eigenvalues --    0.75924   0.76270   0.76377   0.76530   0.76821
 Alpha virt. eigenvalues --    0.77138   0.77259   0.77654   0.77946   0.78397
 Alpha virt. eigenvalues --    0.78528   0.78716   0.78999   0.79081   0.79302
 Alpha virt. eigenvalues --    0.79530   0.79912   0.80137   0.80334   0.80434
 Alpha virt. eigenvalues --    0.80982   0.81063   0.81382   0.81452   0.81708
 Alpha virt. eigenvalues --    0.82046   0.82427   0.82563   0.83066   0.83222
 Alpha virt. eigenvalues --    0.83366   0.83555   0.83845   0.84111   0.84213
 Alpha virt. eigenvalues --    0.84638   0.84790   0.85071   0.85306   0.85479
 Alpha virt. eigenvalues --    0.85894   0.86069   0.86426   0.86564   0.86896
 Alpha virt. eigenvalues --    0.87222   0.87606   0.87757   0.87949   0.88057
 Alpha virt. eigenvalues --    0.88202   0.88440   0.88775   0.89028   0.89184
 Alpha virt. eigenvalues --    0.89586   0.89712   0.90323   0.90562   0.90812
 Alpha virt. eigenvalues --    0.90980   0.91458   0.91743   0.91892   0.92067
 Alpha virt. eigenvalues --    0.92516   0.92763   0.93072   0.93320   0.93622
 Alpha virt. eigenvalues --    0.93772   0.93973   0.94425   0.94580   0.94771
 Alpha virt. eigenvalues --    0.95273   0.95349   0.95648   0.96125   0.96407
 Alpha virt. eigenvalues --    0.96700   0.96847   0.97013   0.97267   0.97618
 Alpha virt. eigenvalues --    0.97729   0.98167   0.98256   0.98516   0.98918
 Alpha virt. eigenvalues --    0.98942   0.99177   0.99295   1.00043   1.00282
 Alpha virt. eigenvalues --    1.00567   1.00877   1.01263   1.01625   1.01981
 Alpha virt. eigenvalues --    1.02019   1.02420   1.02630   1.02870   1.03183
 Alpha virt. eigenvalues --    1.03257   1.03718   1.03980   1.04345   1.04408
 Alpha virt. eigenvalues --    1.04729   1.04902   1.05240   1.05660   1.06134
 Alpha virt. eigenvalues --    1.06299   1.06693   1.06824   1.06900   1.07133
 Alpha virt. eigenvalues --    1.07546   1.07801   1.08080   1.08317   1.08482
 Alpha virt. eigenvalues --    1.08616   1.08900   1.09084   1.09310   1.10053
 Alpha virt. eigenvalues --    1.10166   1.10397   1.10721   1.11010   1.11184
 Alpha virt. eigenvalues --    1.11400   1.11819   1.11921   1.12319   1.12630
 Alpha virt. eigenvalues --    1.12748   1.12902   1.13174   1.13411   1.13686
 Alpha virt. eigenvalues --    1.14043   1.14335   1.14484   1.15000   1.15010
 Alpha virt. eigenvalues --    1.15274   1.15617   1.15804   1.15944   1.16213
 Alpha virt. eigenvalues --    1.16328   1.16488   1.16777   1.17047   1.17201
 Alpha virt. eigenvalues --    1.17289   1.17330   1.17607   1.18038   1.18107
 Alpha virt. eigenvalues --    1.18478   1.18714   1.19214   1.19518   1.19784
 Alpha virt. eigenvalues --    1.20014   1.20136   1.20544   1.20836   1.20980
 Alpha virt. eigenvalues --    1.21435   1.21902   1.22171   1.22458   1.22811
 Alpha virt. eigenvalues --    1.23023   1.23212   1.23374   1.23736   1.24033
 Alpha virt. eigenvalues --    1.24208   1.24575   1.24658   1.24722   1.24997
 Alpha virt. eigenvalues --    1.25250   1.25942   1.26215   1.26268   1.26697
 Alpha virt. eigenvalues --    1.26866   1.27265   1.27451   1.27599   1.27930
 Alpha virt. eigenvalues --    1.28083   1.28316   1.28773   1.28785   1.29202
 Alpha virt. eigenvalues --    1.29415   1.29990   1.30439   1.30676   1.30954
 Alpha virt. eigenvalues --    1.31227   1.31399   1.31709   1.31983   1.32154
 Alpha virt. eigenvalues --    1.32343   1.32633   1.32859   1.33164   1.33620
 Alpha virt. eigenvalues --    1.33781   1.34462   1.34588   1.34717   1.34969
 Alpha virt. eigenvalues --    1.35129   1.35495   1.35753   1.36332   1.36363
 Alpha virt. eigenvalues --    1.36642   1.36946   1.37087   1.37980   1.38230
 Alpha virt. eigenvalues --    1.38366   1.38904   1.39011   1.39281   1.39532
 Alpha virt. eigenvalues --    1.39579   1.40423   1.40500   1.40684   1.40795
 Alpha virt. eigenvalues --    1.40867   1.41156   1.41393   1.41642   1.41943
 Alpha virt. eigenvalues --    1.42176   1.42509   1.42823   1.43167   1.43280
 Alpha virt. eigenvalues --    1.43703   1.43829   1.44181   1.44478   1.44598
 Alpha virt. eigenvalues --    1.44881   1.44946   1.45245   1.45290   1.45585
 Alpha virt. eigenvalues --    1.45902   1.46003   1.46191   1.46494   1.46580
 Alpha virt. eigenvalues --    1.46674   1.46964   1.47070   1.47286   1.47350
 Alpha virt. eigenvalues --    1.47603   1.47777   1.47834   1.48022   1.48508
 Alpha virt. eigenvalues --    1.48611   1.48847   1.49056   1.49104   1.49434
 Alpha virt. eigenvalues --    1.49676   1.49956   1.50026   1.50157   1.50276
 Alpha virt. eigenvalues --    1.50580   1.50725   1.50952   1.51051   1.51388
 Alpha virt. eigenvalues --    1.51410   1.51504   1.51873   1.52133   1.52314
 Alpha virt. eigenvalues --    1.52427   1.52466   1.52783   1.53276   1.53436
 Alpha virt. eigenvalues --    1.53612   1.53744   1.53997   1.54072   1.54257
 Alpha virt. eigenvalues --    1.54426   1.54665   1.54991   1.55058   1.55290
 Alpha virt. eigenvalues --    1.55484   1.55770   1.55974   1.56136   1.56249
 Alpha virt. eigenvalues --    1.56610   1.56836   1.56958   1.57049   1.57290
 Alpha virt. eigenvalues --    1.57363   1.57477   1.57663   1.57823   1.58018
 Alpha virt. eigenvalues --    1.58158   1.58408   1.58577   1.58746   1.58786
 Alpha virt. eigenvalues --    1.59130   1.59280   1.59363   1.59595   1.59757
 Alpha virt. eigenvalues --    1.59795   1.60143   1.60304   1.60470   1.60619
 Alpha virt. eigenvalues --    1.60797   1.60958   1.61176   1.61469   1.61495
 Alpha virt. eigenvalues --    1.61951   1.62038   1.62149   1.62241   1.62488
 Alpha virt. eigenvalues --    1.62527   1.62760   1.62840   1.63052   1.63274
 Alpha virt. eigenvalues --    1.63552   1.63620   1.63684   1.63934   1.64249
 Alpha virt. eigenvalues --    1.64369   1.64445   1.64549   1.64625   1.64946
 Alpha virt. eigenvalues --    1.65072   1.65178   1.65442   1.65617   1.65815
 Alpha virt. eigenvalues --    1.65902   1.66101   1.66183   1.66415   1.66533
 Alpha virt. eigenvalues --    1.66622   1.66712   1.66784   1.66993   1.67281
 Alpha virt. eigenvalues --    1.67295   1.67497   1.67601   1.67776   1.68156
 Alpha virt. eigenvalues --    1.68279   1.68479   1.68800   1.68926   1.69079
 Alpha virt. eigenvalues --    1.69248   1.69413   1.69541   1.70098   1.70256
 Alpha virt. eigenvalues --    1.70264   1.70347   1.70564   1.70770   1.71117
 Alpha virt. eigenvalues --    1.71406   1.71593   1.71668   1.71736   1.71981
 Alpha virt. eigenvalues --    1.72104   1.72251   1.72317   1.72577   1.72782
 Alpha virt. eigenvalues --    1.72801   1.73207   1.73321   1.73572   1.73632
 Alpha virt. eigenvalues --    1.73939   1.74310   1.74362   1.74577   1.74636
 Alpha virt. eigenvalues --    1.74913   1.75408   1.75506   1.75611   1.75763
 Alpha virt. eigenvalues --    1.75992   1.76433   1.76700   1.76783   1.76816
 Alpha virt. eigenvalues --    1.77071   1.77160   1.77432   1.77567   1.77689
 Alpha virt. eigenvalues --    1.77940   1.78017   1.78216   1.78695   1.78739
 Alpha virt. eigenvalues --    1.78766   1.78967   1.79174   1.79301   1.79455
 Alpha virt. eigenvalues --    1.79680   1.79819   1.80229   1.80456   1.80609
 Alpha virt. eigenvalues --    1.80769   1.80990   1.81146   1.81397   1.81536
 Alpha virt. eigenvalues --    1.81642   1.82016   1.82126   1.82427   1.82586
 Alpha virt. eigenvalues --    1.82763   1.83044   1.83135   1.83559   1.83931
 Alpha virt. eigenvalues --    1.84114   1.84494   1.84652   1.84958   1.85110
 Alpha virt. eigenvalues --    1.85357   1.85470   1.85575   1.86363   1.86495
 Alpha virt. eigenvalues --    1.86687   1.86837   1.87019   1.87614   1.87690
 Alpha virt. eigenvalues --    1.87969   1.88230   1.88788   1.88912   1.89192
 Alpha virt. eigenvalues --    1.89310   1.89464   1.89757   1.90213   1.90524
 Alpha virt. eigenvalues --    1.90776   1.90930   1.91126   1.91324   1.91439
 Alpha virt. eigenvalues --    1.91761   1.92061   1.92292   1.92676   1.93019
 Alpha virt. eigenvalues --    1.93251   1.93516   1.93805   1.94211   1.94398
 Alpha virt. eigenvalues --    1.94704   1.94979   1.95107   1.95666   1.95831
 Alpha virt. eigenvalues --    1.96068   1.96389   1.96469   1.97176   1.97368
 Alpha virt. eigenvalues --    1.97710   1.97899   1.98396   1.98605   1.98861
 Alpha virt. eigenvalues --    1.99051   1.99563   2.00032   2.00103   2.00478
 Alpha virt. eigenvalues --    2.00690   2.00944   2.01426   2.01960   2.02089
 Alpha virt. eigenvalues --    2.02188   2.02592   2.02610   2.02955   2.03118
 Alpha virt. eigenvalues --    2.03389   2.04212   2.04301   2.04505   2.04652
 Alpha virt. eigenvalues --    2.04871   2.05186   2.05458   2.05907   2.06143
 Alpha virt. eigenvalues --    2.06354   2.06842   2.06904   2.07119   2.07301
 Alpha virt. eigenvalues --    2.07788   2.08022   2.08490   2.08658   2.08968
 Alpha virt. eigenvalues --    2.09265   2.09545   2.09713   2.09757   2.10134
 Alpha virt. eigenvalues --    2.10275   2.10335   2.10889   2.11147   2.11521
 Alpha virt. eigenvalues --    2.11868   2.12321   2.12543   2.12772   2.13139
 Alpha virt. eigenvalues --    2.13557   2.13620   2.13853   2.14156   2.14452
 Alpha virt. eigenvalues --    2.14716   2.15093   2.15586   2.15800   2.15977
 Alpha virt. eigenvalues --    2.16105   2.16654   2.17000   2.17308   2.17430
 Alpha virt. eigenvalues --    2.17814   2.17956   2.18381   2.18757   2.19022
 Alpha virt. eigenvalues --    2.19475   2.19555   2.19638   2.19895   2.20475
 Alpha virt. eigenvalues --    2.20848   2.21132   2.21223   2.21297   2.22076
 Alpha virt. eigenvalues --    2.22580   2.22725   2.23102   2.23157   2.23398
 Alpha virt. eigenvalues --    2.23943   2.24296   2.24478   2.24893   2.25011
 Alpha virt. eigenvalues --    2.25241   2.25874   2.25965   2.26140   2.26418
 Alpha virt. eigenvalues --    2.26704   2.26868   2.27420   2.27793   2.28047
 Alpha virt. eigenvalues --    2.28461   2.28618   2.28864   2.28975   2.29398
 Alpha virt. eigenvalues --    2.29800   2.30277   2.30887   2.31411   2.31717
 Alpha virt. eigenvalues --    2.31955   2.32109   2.32248   2.32325   2.32459
 Alpha virt. eigenvalues --    2.33210   2.33524   2.33664   2.33820   2.34079
 Alpha virt. eigenvalues --    2.34286   2.35158   2.35258   2.35491   2.35824
 Alpha virt. eigenvalues --    2.36112   2.36340   2.36604   2.36640   2.36840
 Alpha virt. eigenvalues --    2.36946   2.37322   2.37433   2.37940   2.38279
 Alpha virt. eigenvalues --    2.38455   2.38600   2.38999   2.39408   2.39684
 Alpha virt. eigenvalues --    2.39825   2.40038   2.40237   2.40608   2.41128
 Alpha virt. eigenvalues --    2.41540   2.41724   2.42025   2.42095   2.42345
 Alpha virt. eigenvalues --    2.42514   2.42647   2.42848   2.43084   2.43260
 Alpha virt. eigenvalues --    2.43589   2.43749   2.43860   2.44063   2.44211
 Alpha virt. eigenvalues --    2.44434   2.45097   2.45218   2.45820   2.45907
 Alpha virt. eigenvalues --    2.46225   2.46414   2.46556   2.46717   2.46962
 Alpha virt. eigenvalues --    2.47528   2.47837   2.47972   2.48215   2.48377
 Alpha virt. eigenvalues --    2.48749   2.48898   2.48980   2.49355   2.49389
 Alpha virt. eigenvalues --    2.49723   2.50129   2.50282   2.50666   2.51005
 Alpha virt. eigenvalues --    2.51042   2.51123   2.51655   2.51833   2.51919
 Alpha virt. eigenvalues --    2.52134   2.52338   2.52542   2.52651   2.52940
 Alpha virt. eigenvalues --    2.53069   2.53263   2.53547   2.53793   2.54055
 Alpha virt. eigenvalues --    2.54084   2.54378   2.54526   2.54769   2.55156
 Alpha virt. eigenvalues --    2.55372   2.55569   2.55746   2.55962   2.56207
 Alpha virt. eigenvalues --    2.56465   2.56696   2.56729   2.57031   2.57169
 Alpha virt. eigenvalues --    2.57763   2.58093   2.58344   2.58498   2.58769
 Alpha virt. eigenvalues --    2.58836   2.59067   2.59233   2.59329   2.59892
 Alpha virt. eigenvalues --    2.59952   2.60432   2.60575   2.61112   2.61383
 Alpha virt. eigenvalues --    2.61651   2.61951   2.62093   2.62303   2.62726
 Alpha virt. eigenvalues --    2.63081   2.63187   2.63604   2.63710   2.64018
 Alpha virt. eigenvalues --    2.64514   2.64800   2.64893   2.65045   2.65470
 Alpha virt. eigenvalues --    2.65598   2.65966   2.66232   2.66553   2.66874
 Alpha virt. eigenvalues --    2.67328   2.67508   2.67649   2.68008   2.68139
 Alpha virt. eigenvalues --    2.68251   2.68804   2.68994   2.69321   2.69558
 Alpha virt. eigenvalues --    2.69835   2.70074   2.70208   2.70776   2.71221
 Alpha virt. eigenvalues --    2.71577   2.71741   2.71888   2.72430   2.72730
 Alpha virt. eigenvalues --    2.72966   2.73087   2.73392   2.73684   2.73932
 Alpha virt. eigenvalues --    2.74163   2.74306   2.74556   2.74897   2.75247
 Alpha virt. eigenvalues --    2.75355   2.75527   2.75791   2.76137   2.76512
 Alpha virt. eigenvalues --    2.76937   2.77079   2.77161   2.77507   2.77780
 Alpha virt. eigenvalues --    2.77975   2.78129   2.78660   2.78877   2.79048
 Alpha virt. eigenvalues --    2.79285   2.79419   2.79661   2.79837   2.80005
 Alpha virt. eigenvalues --    2.80280   2.80765   2.80905   2.81308   2.81438
 Alpha virt. eigenvalues --    2.81627   2.81993   2.82161   2.82452   2.82766
 Alpha virt. eigenvalues --    2.83194   2.83281   2.83560   2.83920   2.84226
 Alpha virt. eigenvalues --    2.84644   2.84861   2.85342   2.85506   2.85622
[...]
 8949,0.00004740,-0.00000720,-0.00000042,-0.00000131,0.00000055,0.00000
 435,-0.00000164,-0.00000063,0.00000264,-0.00000120,-0.00000115,-0.0000
 0027,-0.00000238,0.00000020,0.00000272,0.00000042,-0.00000880,-0.00001
 565,-0.00000315,0.00000192,-0.00000027,0.00000251,-0.00000005,-0.00000
 026,0.00000149,-0.00000006,0.00000051,0.00000085,-0.00000014,-0.000000
 26,-0.00000008,0.00000099,-0.00000089,0.00000200,0.00000057,-0.0000003
 5,-0.00000112,0.00000020,0.00000147,0.00000102,-0.00000126,-0.00000114
 ,0.00000062,0.00000002,0.00000138,0.00000027,0.00000013,-0.00000049,-0
 .00000074,-0.00000073,-0.00000090,0.00000041,0.00000023,-0.00000002,0.
 00000017,0.00000009,0.00000015,-0.00000078,0.00000020,-0.00000039,0.00
 000078,0.00000111,0.00000052,0.,0.00000140,0.00000056,0.00000103,0.000
 00062,0.00000073,0.00000136,-0.00000101,0.00000215,0.00000074,-0.00000
 011,-0.00000015,0.00000061,-0.00000079,-0.00000013,0.00000257,0.000000
 07,-0.00000081,-0.00000094,0.00000039,0.00000145,-0.00000053,-0.000000
 50,0.00000054,0.00000109,0.00000037,0.00000021,-0.00000088,0.00000057,
 -0.00000052,-0.00000042,0.00000053,0.00000057,0.00000053,0.00000072,0.
 00000038,0.00000129,-0.00000004,-0.00000055,0.00000056,0.00000187,0.00
 000606,0.00000017,-0.00002019,-0.00003583,-0.00001506,-0.00001163,0.00
 001408,0.00001551,0.00000272,0.00000291,0.00000158,0.00000149,0.000001
 04,0.00000121,0.00000817,0.00000119,0.00000270,0.00000199,0.00000642,0
 .00000058,0.00000220,0.00000128,-0.00000021,0.38632787,0.00005790,-0.0
 0000023,0.00001921,0.00002222,0.00000098,0.00000065,0.00000532,0.00000
 133,0.00000215,0.00001685,-0.00001593,0.00000994,0.00004662,0.00002553
 ,0.00000468,-0.00002239,-0.00001308,0.00000256,0.00002550,0.00004300,-
 0.00004807,0.00000679,0.00000675,0.00000969,0.00001208,0.00000100,0.00
 000567,-0.00002790,0.00000750,-0.00000458,-0.00013824,-0.00011346,-0.0
 0005926,0.00000968,-0.00000664,-0.00000163,-0.00003211,-0.00001055,-0.
 00001726,-0.00001552,-0.00000078,-0.00000560,-0.00002199,-0.00003458,-
 0.00009241,0.00001501,0.00002183,0.00000727,-0.00001962,-0.00001871,-0
 .00000500,-0.00002804,-0.00000820,-0.00001368,0.00031919,-0.00000357,-
 0.00015057,0.00001264,0.00001093,0.00000561,0.00002678,-0.00000184,0.0
 0001303,-0.00003139,-0.00000199,-0.00001116,-0.00011804,-0.00019763,0.
 00000197,-0.00001772,-0.00001678,-0.00000882,-0.00004987,-0.00002222,-
 0.00001654,-0.00001970,-0.00002437,0.00000005,0.00002230,0.00001153,0.
 00002929,-0.00000082,-0.00001165,-0.00002378,-0.00002637,-0.00000786,-
 0.00000920,0.00001357,-0.00002282,0.00000872,-0.00000151,0.00000257,-0
 .00002352,-0.00003379,-0.00000357,-0.00001408,-0.00008728,-0.00025577,
 0.00007571,0.00003264,0.00002149,0.00001641,-0.00009596,0.00019481,0.0
 0012778,0.00011623,0.00000347,-0.00019609,0.00001525,-0.00000992,0.000
 00559,-0.00000411,0.00000615,-0.00000645,0.00006596,-0.00005808,-0.000
 07716,-0.00003641,-0.00004204,0.00002666,0.00001568,0.00004095,-0.0000
 0669,0.00000466,-0.00000081,0.00000098,0.00001665,0.00000844,0.0000020
 5,0.00000067,0.00000014,-0.00002118,-0.00000876,0.00000488,0.00000718,
 -0.00005637,0.00002158,0.00006229,0.00002703,0.00033019,-0.00004564,-0
 .00007871,0.00001041,0.00012333,-0.00000564,-0.00000679,-0.00000084,-0
 .00002025,0.00001517,0.00002913,-0.00001303,0.00002382,-0.00000091,0.0
 0050837,-0.00016041,-0.00040225,-0.00040614,0.00021652,0.00044328,-0.0
 0027253,-0.00006015,0.00026242,-0.00039443,0.00033254,-0.00014629,0.00
 140961,0.00244627,0.00684721,0.02812492,-0.01165972,-0.00103772,0.1530
 1523,-0.09275721,0.01336421,-0.00436400,0.00002593,-0.00575853,-0.0001
 1294,0.00000292,0.00027849,0.00002406,-0.00000185,-0.00000884,-0.00001
 151,-0.00000930,-0.00000909,-0.00007770,-0.00004393,0.00003357,0.00007
 220,0.00006387,-0.00000482,0.00008955,0.00004480,0.00002644,0.00000402
 ,-0.00000445,0.00000984,-0.00002038,-0.00000017,-0.00001674,0.00003486
 ,0.00000233,0.00008387,-0.00003009,0.00000503,-0.00003273,-0.00000589,
 0.00000820,-0.00005062,-0.00001254,0.00001646,-0.00000066,0.00000064,0
 .00000541,0.00001256,0.00001004,0.00000116,0.00000824,-0.00001884,0.00
 000131,-0.00000133,0.00005482,-0.00000571,0.00002335,-0.00003295,0.000
 00684,-0.00000365,-0.00003691,0.00000463,-0.00002641,-0.00000276,-0.00
 000338,-0.00000512,-0.00001145,-0.00000305,0.00000174,0.00000210,-0.00
 001101,0.00000747,-0.00001343,-0.00000202,0.00000043,0.00005338,-0.000
 02069,0.00002115,-0.00003199,0.00001090,-0.00000595,-0.00003646,0.0000
 1626,-0.00001206,-0.00000483,-0.00000125,-0.00000176,0.00006763,-0.000
 04065,0.00001802,-0.00005881,0.00001488,-0.00001359,-0.00006214,0.0000
 3204,0.00002258,0.00003643,-0.00002412,-0.00001784,-0.00000407,0.00000
 230,-0.00000151,0.00000129,-0.00000276,0.00000099,0.00000133,0.0000015
 2,0.00000118,-0.00000408,0.00000008,-0.00000261,-0.00000260,-0.0000037
 8,-0.00000141,0.00000486,-0.00000638,0.00000167,0.00000132,0.00000055,
 0.00000106,0.00019343,-0.00016853,-0.00014103,0.00000112,-0.00000122,0
 .00000130,0.00000198,-0.00000655,-0.00000664,-0.00000436,-0.00000184,0
 .00000147,-0.00000578,0.00000810,0.00000195,-0.00000531,0.00000134,-0.
 00000812,-0.00000197,0.00000549,0.00000543,0.00000362,0.00000423,0.000
 00458,0.00000654,0.00001096,-0.00000697,0.00001981,-0.00000594,0.00000
 507,0.00000602,0.00000661,0.00000159,-0.00000164,0.00000696,0.00000346
 ,0.00000004,-0.00000101,-0.00000046,-0.00000301,-0.00000368,-0.0000078
 5,-0.00001011,0.00000217,0.00000311,0.00001224,-0.00000519,0.00000575,
 0.00000402,0.00000602,-0.00000140,0.00001636,-0.00000940,-0.00000104,0
 .00000354,0.00000836,-0.00000144,-0.00000973,-0.00000620,-0.00000590,-
 0.00001072,-0.00001614,-0.00002547,-0.00000747,0.00000943,0.00001056,0
 .00001894,-0.00003781,-0.00001889,-0.00005511,0.00009537,-0.00005180,0
 .00003049,-0.00013013,-0.00000807,-0.00017415,0.00033935,-0.00025546,0
 .00136440,-0.00119049,-0.00004343,-0.00476689,-0.00144459,-0.00152913,
 -0.00001550,-0.00023059,-0.00037913,0.00000500,0.00008383,-0.00002361,
 -0.00006859,-0.00019317,0.00015240,-0.00005340,-0.00000081,0.00000958,
 0.00001431,0.00003901,-0.00001652,0.00000841,-0.00002249,0.00002882,0.
 00001330,0.00000273,-0.00000686,-0.00000180,0.00000400,0.00000407,-0.0
 0003124,-0.00000860,-0.00000151,-0.00000010,-0.00000490,0.00000279,0.0
 0001001,-0.00000368,0.00000512,0.00000123,0.00000016,0.00000550,0.0000
 0283,0.00000388,-0.00000297,-0.00000152,-0.00000667,0.00001073,-0.0000
 0195,-0.00000300,-0.00000400,0.00000334,0.00000971,0.00000858,-0.00000
 357,-0.00000546,-0.00000242,-0.00000144,0.00000958,0.00000106,0.000001
 72,-0.00000392,-0.00000082,-0.00000099,-0.00000565,-0.00000138,0.00000
 060,-0.00000176,0.00000093,-0.00000145,0.00000470,-0.00000534,0.000001
 20,-0.00000236,0.00000274,0.00000582,0.00000472,0.00000008,0.00000478,
 -0.00000380,0.00000512,-0.00000051,0.00000081,0.00000591,-0.00000617,0
 .00000833,0.00000470,0.00000156,0.00000432,0.00000175,-0.00000305,-0.0
 0000414,0.00000742,0.00000179,0.00000453,-0.00000176,-0.00000272,0.000
 00186,-0.00000606,-0.00000049,0.00000061,0.00000122,0.00000047,0.00000
 698,-0.00000142,0.00000184,-0.00000052,-0.00000090,0.00000142,0.000000
 61,0.00000538,-0.00000050,-0.00000146,-0.00000941,-0.00000615,0.000003
 84,0.00000360,0.00001230,-0.00000822,-0.00000502,-0.00004999,-0.000016
 89,-0.00002319,-0.00000179,0.00005571,-0.00001840,0.00002467,0.0000074
 0,0.00001361,0.00000419,-0.00000286,0.00000669,0.00002964,-0.00000100,
 0.00001061,0.00000521,0.00001210,0.00000359,0.00000671,-0.00000160,-0.
 00000171,-0.17391861,0.10444310,0.00001569,0.00000355,0.00001119,0.000
 00648,0.00000075,0.00000068,0.00000079,0.00000022,0.00000204,0.0000127
 2,0.00000103,0.00001350,0.00002223,0.00001265,0.00000344,-0.00000820,-
 0.00000452,0.00000158,0.00000949,0.00000216,-0.00006627,0.00000341,0.0
 0000329,0.00000104,0.00000145,0.00000030,0.00000435,-0.00000705,-0.000
 00007,-0.00000389,-0.00007885,-0.00002419,-0.00013079,0.00000290,-0.00
 000066,0.00000101,-0.00000940,-0.00000519,-0.00000491,-0.00000365,-0.0
 0000067,-0.00000555,-0.00000325,-0.00005204,0.00003598,0.00000260,0.00
 000204,0.00000284,-0.00000444,-0.00000614,-0.00000317,-0.00000802,-0.0
 0000481,-0.00000655,0.00006268,0.00002756,-0.00009873,0.00000236,0.000
 00219,0.00000388,0.00001163,-0.00000814,0.00000625,-0.00000889,-0.0000
 0170,-0.00000505,-0.00003677,-0.00006523,-0.00000154,-0.00000409,-0.00
 000520,-0.00000539,-0.00002310,-0.00000293,-0.00000808,-0.00000608,0.0
 0000580,0.00001786,0.00000717,0.00000344,0.00001496,0.00000201,-0.0000
 0557,-0.00001312,-0.00000788,-0.00000434,-0.00000516,0.00000421,-0.000
 00778,-0.00000700,-0.00000039,0.00000155,-0.00000894,-0.00000583,0.000
 00385,-0.00000861,-0.00002415,-0.00005793,0.00002723,0.00000890,0.0000
 0621,0.00000645,-0.00001804,0.00003943,0.00001943,0.00001942,-0.000001
 21,-0.00003343,0.00000418,-0.00000189,0.00000150,-0.00000133,0.0000015
 5,-0.00000138,0.00001270,-0.00001263,-0.00001351,-0.00000687,-0.000005
 66,0.00000282,0.00000355,0.00000113,-0.00000256,0.00000136,0.00000029,
 0.00000404,0.00000310,0.00000488,-0.00000317,0.00000136,-0.00000239,-0
 .00000106,-0.00000928,-0.00000606,-0.00001698,-0.00001046,-0.00000257,
 -0.00000172,0.00001771,0.00007537,-0.00000988,-0.00001327,0.00000671,0
 .00002108,-0.00000486,-0.00000083,-0.00000075,-0.00001811,0.00003021,0
 .00001033,0.00005498,-0.00002465,0.00005751,-0.00047991,0.00028431,0.0
 0013919,-0.00002873,-0.00066964,-0.00176019,0.00025022,-0.00001184,-0.
 00016461,-0.00134441,0.00044123,-0.00037690,0.00173546,0.00487556,-0.0
 0073478,-0.03010768,0.00852245,0.00966881,0.02121508,0.01642056,-0.066
 69536,0.00338467,-0.00445796,-0.00115276,-0.00003277,-0.00005795,0.000
 18339,0.00001200,-0.00000054,-0.00001011,-0.00000560,-0.00000210,-0.00
 001266,-0.00003741,-0.00002820,0.00006645,0.00002935,0.00004733,-0.000
 05092,0.00002595,-0.00000149,-0.00001725,-0.00000134,0.00000106,0.0000
 0735,-0.00000599,0.00000025,-0.00000810,0.00000043,0.00000232,0.000036
 68,0.00000122,-0.00000097,-0.00001663,0.00000350,-0.00000578,-0.000024
 15,-0.00000305,0.00000325,0.00000048,-0.00000021,0.00000119,0.00000312
 ,0.00000310,0.00000051,0.00000215,-0.00000548,0.00000022,0.00000029,0.
 00001518,-0.00000082,0.00001163,-0.00000773,0.00000118,-0.00000468,-0.
 00001177,0.00000108,-0.00001057,-0.00000023,-0.00000103,-0.00000082,-0
 .00000096,-0.00000262,-0.00000082,0.00000078,-0.00000258,0.00000071,-0
 .00000456,-0.00000059,0.00000042,0.00001738,-0.00000424,0.00000571,-0.
 00000970,-0.00000057,-0.00000338,-0.00001113,0.00000373,-0.00000428,-0
 .00000194,-0.00000528,-0.00000133,0.00001107,0.00003352,0.00000769,-0.
 00000530,-0.00001379,-0.00000021,0.00000091,-0.00004497,-0.00000769,0.
 00000663,-0.00000851,-0.00000339,-0.00000124,0.00000029,-0.00000036,0.
 00000024,-0.00000056,0.00000033,0.00000060,0.00000045,0.00000027,-0.00
 000106,0.00000018,-0.00000077,-0.00000075,-0.00000190,0.00000026,0.000
 00191,-0.00000222,0.00000008,0.00000104,0.00000022,-0.00000070,0.00016
 525,0.00003321,0.00003818,-0.00000013,0.00000014,0.00000026,0.00000129
 ,-0.00000218,-0.00000291,-0.00000130,-0.00000018,0.00000062,-0.0000043
 7,0.00000272,0.00000294,-0.00000439,0.00000224,-0.00000410,-0.00000196
 ,0.00000292,0.00000291,-0.00000005,0.00000394,0.00000292,0.00000202,0.
 00000211,-0.00000157,0.00000007,-0.00000194,0.00000715,0.00000193,0.00
 000236,0.00000062,-0.00000033,0.00000139,0.00000046,0.00000060,-0.0000
 0020,-0.00000082,0.00000245,0.00000224,0.00000095,-0.00000383,0.000003
 27,0.00000589,0.00000930,-0.00001216,0.00000865,0.00000226,0.00000172,
 0.00000834,-0.00000848,-0.00000040,-0.00001897,0.00002411,-0.00001686,
 -0.00000087,-0.00000215,-0.00000375,0.00000482,-0.00000958,-0.00003002
 ,-0.00000552,-0.00000532,-0.00001859,0.00000295,0.00001555,0.00005925,
 0.00006340,0.00010673,0.00046091,0.00011411,0.00003103,-0.00000569,0.0
 0000988,0.00012103,-0.00018966,0.00009542,-0.00023155,-0.00007856,-0.0
 0001467,0.02310713,-0.01409704,0.00883680,0.00003711,-0.00007733,-0.00
 008063,0.00000174,0.00001172,0.00000125,-0.00004203,0.00005804,-0.0000
 0089,-0.00000301,0.00000702,0.00001533,0.00000332,0.00000895,-0.000005
 46,-0.00000977,0.00000687,0.00000493,0.00000623,0.00000447,-0.00000303
 ,-0.00000201,-0.00000040,-0.00000298,-0.00000252,0.00000720,0.00000927
 ,0.00000273,0.00000048,-0.00000468,0.00000077,0.00000057,0.00000343,0.
 00000152,-0.00000196,0.00000216,0.00000059,0.00000128,-0.00000023,-0.0
 0000109,0.00000285,0.00000354,-0.00000007,-0.00000025,-0.00000164,0.00
 000071,0.00000220,0.00000194,-0.00000058,-0.00000145,-0.00000026,-0.00
 000024,0.00000214,0.00000011,-0.00000031,-0.00000081,-0.00000043,0.000
 00039,-0.00000117,-0.00000021,0.00000052,-0.00000050,0.00000014,-0.000
 00061,0.00000137,-0.00000136,0.00000046,-0.00000032,0.00000021,0.00000
 132,0.00000127,0.00000012,0.00000096,-0.00000081,0.00000250,0.00000041
 ,0.00000016,0.00000076,-0.00000167,0.00000188,0.00000086,0.00000039,0.
 00000058,0.00000064,-0.00000037,-0.00000052,0.00000224,0.00000029,0.00
 000010,-0.00000029,-0.00000119,0.00000179,-0.00000002,0.00000039,0.000
 00061,0.00000093,-0.00000002,0.00000088,-0.00000049,0.00000020,-0.0000
 0015,-0.00000002,0.00000037,-0.00000015,0.00000107,0.00000001,0.000000
 90,0.00000075,-0.00000068,-0.00000096,0.00000090,0.00000370,0.00000202
 ,0.00000037,-0.00001719,-0.00001707,0.00000750,0.00000979,-0.00002389,
 0.00002164,0.00000473,0.00000273,0.00000382,0.00000010,0.00000413,0.00
 000247,0.00000913,-0.00000007,0.00000353,0.00000094,0.00000527,0.00000
 213,0.00000177,-0.00000035,0.00000048,-0.01790518,-0.01136645,0.051974
 40\\0.00000542,-0.00000214,-0.00001440,-0.00000411,-0.00000152,-0.0000
 0046,0.00000194,-0.00000300,-0.00000275,0.00000045,0.00000997,-0.00000
 324,0.00000225,-0.00000165,0.00000157,-0.00000232,-0.00000256,-0.00000
 444,0.00000195,-0.00000983,0.00000243,0.00000320,-0.00000175,0.0000078
 0,-0.00000372,-0.00000403,-0.00000130,0.00000097,-0.00000525,-0.000003
 99,0.00000035,0.00000963,-0.00000067,0.00000120,0.00000151,0.00000213,
 -0.00000143,-0.00000094,-0.00000309,-0.00000602,0.00000671,0.00000430,
 -0.00000158,-0.00000275,-0.00000037,-0.00000049,-0.00000192,0.00000225
 ,-0.00000042,-0.00000191,0.00000120,-0.00000142,-0.00000241,0.00000281
 ,-0.00000136,-0.00000030,-0.00000047,0.00000279,-0.00000312,0.00000102
 ,0.00000012,-0.00000250,-0.00000175,-0.00000312,-0.00000478,0.00000157
 ,0.00000352,0.00000143,0.00000568,0.00000022,-0.00000251,0.00000097,-0
 .00000016,-0.00000151,-0.00000059,-0.00000358,-0.00000209,-0.00000416,
 0.00000186,-0.00000312,0.00000153,0.00000256,-0.00000228,0.00000030,0.
 00000193,-0.00000007,-0.00000178,0.00000079,-0.00000125,-0.00000061,-0
 .00000013,0.00000139,0.00000140,0.00000023,0.00000026,0.00000182,-0.00
 000622,0.00000266,-0.00000128,0.00000219,-0.00000124,0.00000138,-0.000
 00100,-0.00000165,-0.00000320,0.00000135,0.00000207,0.00000208,-0.0000
 0107,-0.00000012,-0.00000478,0.00000118,0.00000196,0.00000107,-0.00000
 010,-0.00000182,0.00000365,0.00000211,0.00000604,-0.00000298,-0.000002
 38,-0.00000332,-0.00000199,-0.00000339,0.00000397,-0.00000220,0.000001
 53,-0.00000116,-0.00000035,-0.00000267,0.00000139,-0.00000180,0.000002
 73,0.00000025,0.00000027,0.00000152,-0.00000308,0.00000088,-0.00000100
 ,-0.00000051,-0.00000036,-0.00000377,0.00000222,-0.00000309,0.00000280
 ,0.00000508,0.00000329,-0.00000010,0.00000050,-0.00000325,-0.00000211,
 0.00000384,-0.00000277,0.00000973,0.00000439,0.00001456,0.00000014,-0.
 00000388,-0.00000274,-0.00000451,-0.00000036,0.00000178,0.00000193,-0.
 00001278,0.00000285,-0.00000553,0.00001722,0.00000177,0.00000880,-0.00
 000243,0.00000519,0.00000296,-0.00000172,0.00000937,-0.00000261,-0.000
 00068,0.00000138,-0.00000034,0.00000539,0.00000463,-0.00000057,0.00000
 418,0.00000136,-0.00000072,-0.00000155,-0.00000106,0.00000637,0.000006
 96,0.00000515,-0.00000435,-0.00000203,-0.00000098,-0.00000113,-0.00000
 144,-0.00000080,0.00000314,-0.00000422,0.00000200,0.00000080,0.0000016
 3,0.00000265,0.00000145,0.00000187,-0.00000414,-0.00000206,-0.00000323
 ,0.00000143,-0.00000150,-0.00000347,0.00000038,0.00000041,0.00000190,-
 0.00000027,-0.00000014,-0.00000085,-0.00000084,-0.00000228,0.00000153,
 -0.00000244,0.00000338,-0.00000356,-0.00000252,-0.00000788,0.00001941,
 0.00000969,0.00000283,-0.00000724,-0.00001292,-0.00000559,-0.00000894,
 -0.00000758,-0.00000475,0.00000071,-0.00000215,0.00000112,0.00000183,0
 .00000042,0.00000344,-0.00000033,-0.00000347,-0.00000131,0.00000703,0.
 00000572,0.00000098,-0.00000526,-0.00000574,0.00000099,0.00000397,0.00
 000157,0.00000107,0.00000005,-0.00000044,-0.00000042,0.00000166,-0.000
 00060,-0.00000190,-0.00000432,0.00001041,-0.00000054,0.00000189,-0.000
 00052,0.00000295,0.00000312,-0.00000036,0.00000173,0.00000288,-0.00000
 098,-0.00000061,-0.00000079,-0.00000052,0.00000002,-0.00000024,-0.0000
 0163,-0.00000088,-0.00000080,-0.00000045,-0.00000060,-0.00000134,-0.00
 000098,0.00000153,-0.00000224,0.00000017,0.00000129,-0.00000096,0.0000
 0079,-0.00000089,-0.00000408,-0.00000007,0.00000213,0.00000057,0.00000
 301,-0.00000020,-0.00000260,-0.00000067,-0.00000150,-0.00000132,-0.000
 00113,0.00000028,-0.00000139,0.00000159,-0.00000027,-0.00000094,-0.000
 00030,-0.00000041,-0.00000235,-0.00000001,0.00000014,-0.00000272,0.000
 00064,0.00000144,-0.00000500,-0.00000140,0.00000105,-0.00000003,-0.000
 00099,-0.00000033,-0.00000261,-0.00000485,-0.00000080,0.00000100,-0.00
 000248,-0.00000103,0.00000099,-0.00000375,0.00000146,0.00000111,0.0000
 0102,0.00000091,0.00000088,0.00000231,-0.00000120,0.00000186,-0.000001
 70,0.00000003,0.00000128,0.00000133,-0.00000050,0.00000044,-0.00000029
 ,0.00000030,0.00000157,0.00000032,0.00000010,-0.00000566,0.00000135,0.
 00000133,0.00000055,0.00000150,-0.00000042,0.00000010,0.00000404,0.000
 00121,0.00000198,0.00000323,0.00000247,-0.00000110,0.,-0.00000208,-0.0
 0000132,0.00000261,0.00000242,-0.00000039,0.00000109,0.00000362,-0.000
 00297,0.00000440,0.00000216,-0.00000223,0.00000078,-0.00000189,0.00000
 218,-0.00000101,0.00000099,-0.00000117,0.00000268,0.00000247,0.0000005
 8,0.00000187,0.00000162,0.00000004,0.00000288,0.00000216,0.00000040,0.
 00000113,0.00000072,0.00000185,0.00000031,0.00000072,-0.00000083,0.000
 00122,0.00000042,0.00000078,0.00000086,0.00000107,0.00000039,-0.000000
 14,0.00000009,0.00000162,0.00000114,-0.00000017,-0.00000109,-0.0000009
 5,0.00000048,-0.00000082,0.00000023,0.00000033,-0.00000065,-0.00000042
 ,-0.00000102,-0.00000066,-0.00000138,0.00000056,-0.00000159,-0.0000011
 3,-0.00000131,0.00000202,-0.00000195,-0.00000194,0.00000123,-0.0000031
 5,-0.00000126,0.00000155,-0.00000202,-0.00000166,0.00000141,-0.0000027
 1,-0.00000208,0.00000031,-0.00000308,-0.00000155,0.00000058,-0.0000021
 7,-0.00000074,0.00000088,-0.00000134,-0.00000313,-0.00000071,-0.000002
 27,-0.00000218,-0.00000015,-0.00000193,0.00000002,0.00000008,-0.000002
 28,-0.00000191,-0.00000199,-0.00000060,-0.00000150,0.00000180,-0.00000
 067,-0.00000268,0.00000139,-0.00000189,-0.00000181,0.00000169,-0.00000
 227,-0.00000040,0.00000234,0.00000061,-0.00000130,0.00000181,-0.000000
 82,-0.00000094,0.00000255,-0.00000029,-0.00000167,-0.00000031,0.000000
 97,-0.00000086,0.00000306,-0.00000064,0.00000144,0.00000172,-0.0000030
 4,-0.00000046,-0.00000086,-0.00000191,0.00000057,0.00000238,0.00000015
 ,-0.00000054,0.00000103,0.00000065,-0.00000054,0.00000038,-0.00000098,
 0.00000010,0.00000223,0.00000122,0.00000088,0.00000318,0.00000340,0.00
 000278,0.00000188,0.00000172,0.00000053,-0.00000277,-0.00000072,0.0000
 0403,0.00000135,-0.00000082,-0.00000140,-0.00000385,0.00000109,-0.0000
 0024,0.00000016,-0.00000105,0.00000139,0.00000118,0.00000153\\\@


 SEE YOU NOW,
 YOUR BAIT OF FALSEHOOD TAKES THIS CARP OF TRUTH.
 AND THUS DO WE OF WISDOM AND OF REACH...
 BY INDIRECTIONS FIND DIRECTIONS OUT.    -- HAMLET, II, 1
 Job cpu time:      25 days  8 hours 20 minutes 55.0 seconds.
 File lengths (MBytes):  RWF= 129825 Int=      0 D2E=      0 Chk=    455 Scr=      2
 Normal termination of Gaussian 09 at Sat Mar 16 21:43:59 2024.
