 Entering Gaussian System, Link 0=g09
 Initial command:
 /apps/z_install_tree/linux-rocky8-ivybridge/gcc-12.2.0/gaussian-09-D.01-wczn3gur5lpur3omlkzwa2l5ecyxp5ef/g09/l1.exe "/srv/scratch/z5112331/GMX/ligands/Fluorotrichloroethene/Gau-111386.inp" -scrdir="/srv/scratch/z5112331/GMX/ligands/Fluorotrichloroethene/"
 Entering Link 1 = /apps/z_install_tree/linux-rocky8-ivybridge/gcc-12.2.0/gaussian-09-D.01-wczn3gur5lpur3omlkzwa2l5ecyxp5ef/g09/l1.exe PID=    111387.
  
 Copyright (c) 1988,1990,1992,1993,1995,1998,2003,2009,2013,
            Gaussian, Inc.  All Rights Reserved.
  
 This is part of the Gaussian(R) 09 program.  It is based on
 the Gaussian(R) 03 system (copyright 2003, Gaussian, Inc.),
 the Gaussian(R) 98 system (copyright 1998, Gaussian, Inc.),
 the Gaussian(R) 94 system (copyright 1995, Gaussian, Inc.),
 the Gaussian 92(TM) system (copyright 1992, Gaussian, Inc.),
 the Gaussian 90(TM) system (copyright 1990, Gaussian, Inc.),
 the Gaussian 88(TM) system (copyright 1988, Gaussian, Inc.),
 the Gaussian 86(TM) system (copyright 1986, Carnegie Mellon
 University), and the Gaussian 82(TM) system (copyright 1983,
 Carnegie Mellon University). Gaussian is a federally registered
 trademark of Gaussian, Inc.
  
 This software contains proprietary and confidential information,
 including trade secrets, belonging to Gaussian, Inc.
  
 This software is provided under written license and may be
 used, copied, transmitted, or stored only in accord with that
 written license.
  
 The following legend is applicable only to US Government
 contracts under FAR:
  
                    RESTRICTED RIGHTS LEGEND
  
 Use, reproduction and disclosure by the US Government is
 subject to restrictions as set forth in subparagraphs (a)
 and (c) of the Commercial Computer Software - Restricted
 Rights clause in FAR 52.227-19.
  
 Gaussian, Inc.
 340 Quinnipiac St., Bldg. 40, Wallingford CT 06492
  
  
 ---------------------------------------------------------------
 Warning -- This program may not be used in any manner that
 competes with the business of Gaussian, Inc. or will provide
 assistance to any competitor of Gaussian, Inc.  The licensee
 of this program is prohibited from giving any competitor of
 Gaussian, Inc. access to this program.  By using this program,
 the user acknowledges that Gaussian, Inc. is engaged in the
 business of creating and licensing software in the field of
 computational chemistry and represents and warrants to the
 licensee that it is not a competitor of Gaussian, Inc. and that
 it will not use this program in any manner prohibited above.
 ---------------------------------------------------------------
  

 Cite this work as:
 Gaussian 09, Revision D.01,
 M. J. Frisch, G. W. Trucks, H. B. Schlegel, G. E. Scuseria, 
 M. A. Robb, J. R. Cheeseman, G. Scalmani, V. Barone, B. Mennucci, 
 G. A. Petersson, H. Nakatsuji, M. Caricato, X. Li, H. P. Hratchian, 
 A. F. Izmaylov, J. Bloino, G. Zheng, J. L. Sonnenberg, M. Hada, 
 M. Ehara, K. Toyota, R. Fukuda, J. Hasegawa, M. Ishida, T. Nakajima, 
 Y. Honda, O. Kitao, H. Nakai, T. Vreven, J. A. Montgomery, Jr., 
 J. E. Peralta, F. Ogliaro, M. Bearpark, J. J. Heyd, E. Brothers, 
 K. N. Kudin, V. N. Staroverov, T. Keith, R. Kobayashi, J. Normand, 
 K. Raghavachari, A. Rendell, J. C. Burant, S. S. Iyengar, J. Tomasi, 
 M. Cossi, N. Rega, J. M. Millam, M. Klene, J. E. Knox, J. B. Cross, 
 V. Bakken, C. Adamo, J. Jaramillo, R. Gomperts, R. E. Stratmann, 
 O. Yazyev, A. J. Austin, R. Cammi, C. Pomelli, J. W. Ochterski, 
 R. L. Martin, K. Morokuma, V. G. Zakrzewski, G. A. Voth, 
 P. Salvador, J. J. Dannenberg, S. Dapprich, A. D. Daniels, 
 O. Farkas, J. B. Foresman, J. V. Ortiz, J. Cioslowski, 
 and D. J. Fox, Gaussian, Inc., Wallingford CT, 2013.
 
 ******************************************
 Gaussian 09:  ES64L-G09RevD.01 24-Apr-2013
                12-Jun-2024 
 ******************************************
 %chk=tetrachloroethene.chk
 %mem=8GB
 %nprocshared=20
 Will use up to   20 processors via shared memory.
 -------------------------------------------------------------------
 #p opt freq b3lyp/gen nosymm em=gd3 int=ultrafine scf=xqc scfcyc=96
 -------------------------------------------------------------------
 1/14=-1,18=20,19=15,26=4,38=1/1,3;
 2/9=110,12=2,15=1,17=6,18=5,40=1/2;
 3/5=7,11=2,16=1,25=1,30=1,71=1,74=-5,75=-5,124=31/1,2,3;
 4//1;
 5/5=2,7=96,8=3,13=1,38=5/2,8;
 6/7=2,8=2,9=2,10=2,28=1/1;
 7/30=1/1,2,3,16;
 1/14=-1,18=20,19=15,26=4/3(2);
 2/9=110,15=1/2;
 99//99;
 2/9=110,15=1/2;
 3/5=7,6=1,11=2,16=1,25=1,30=1,71=1,74=-5,75=-5,82=7,124=31/1,2,3;
 4/5=5,16=3,69=1/1;
 5/5=2,7=96,8=3,13=1,38=5/2,8;
 7/30=1/1,2,3,16;
 1/14=-1,18=20,19=15,26=4/3(-5);
 2/9=110,15=1/2;
 6/7=2,8=2,9=2,10=2,19=2,28=1/1;
 99/9=1/99;
 Leave Link    1 at Wed Jun 12 23:24:55 2024, MaxMem=  1073741824 cpu:         1.2
 (Enter /apps/z_install_tree/linux-rocky8-ivybridge/gcc-12.2.0/gaussian-09-D.01-wczn3gur5lpur3omlkzwa2l5ecyxp5ef/g09/l101.exe)
 -----------------
 tetrachloroethene
 -----------------
 Symbolic Z-matrix:
 Charge =  0 Multiplicity = 1
 C                     49.582    35.95     32.543 
 C                     50.943    36.295    31.949 
 Cl                    49.632    36.144    34.319 
 Cl                    49.095    34.274    32.166 
 F                     50.905    36.344    30.163 
 Cl                    51.269    37.288    32.275 
 
 Add virtual bond connecting atoms F5         and C2         Dist= 3.38D+00.
 NAtoms=      6 NQM=        6 NQMF=       0 NMMI=      0 NMMIF=      0
                NMic=       0 NMicF=      0.
                    Isotopes and Nuclear Properties:
 (Nuclear quadrupole moments (NQMom) in fm**2, nuclear magnetic moments (NMagM)
  in nuclear magnetons)

  Atom         1           2           3           4           5           6
 IAtWgt=          12          12          35          35          19          35
 AtmWgt=  12.0000000  12.0000000  34.9688527  34.9688527  18.9984033  34.9688527
 NucSpn=           0           0           3           3           1           3
 AtZEff=   0.0000000   0.0000000   0.0000000   0.0000000   0.0000000   0.0000000
 NQMom=    0.0000000   0.0000000  -8.1650000  -8.1650000   0.0000000  -8.1650000
 NMagM=    0.0000000   0.0000000   0.8218740   0.8218740   2.6288670   0.8218740
 AtZNuc=   6.0000000   6.0000000  17.0000000  17.0000000   9.0000000  17.0000000
 Leave Link  101 at Wed Jun 12 23:24:55 2024, MaxMem=  1073741824 cpu:         2.2
 (Enter /apps/z_install_tree/linux-rocky8-ivybridge/gcc-12.2.0/gaussian-09-D.01-wczn3gur5lpur3omlkzwa2l5ecyxp5ef/g09/l103.exe)

 GradGradGradGradGradGradGradGradGradGradGradGradGradGradGradGradGradGrad
 Berny optimization.
 Initialization pass.
                           ----------------------------
                           !    Initial Parameters    !
                           ! (Angstroms and Degrees)  !
 --------------------------                            --------------------------
 ! Name  Definition              Value          Derivative Info.                !
 --------------------------------------------------------------------------------
 ! R1    R(1,2)                  1.5245         estimate D2E/DX2                !
 ! R2    R(1,3)                  1.7873         estimate D2E/DX2                !
 ! R3    R(1,4)                  1.7856         estimate D2E/DX2                !
 ! R4    R(2,5)                  1.7871         estimate D2E/DX2                !
 ! R5    R(2,6)                  1.0948         estimate D2E/DX2                !
 ! A1    A(2,1,3)              109.7328         estimate D2E/DX2                !
 ! A2    A(2,1,4)              111.9399         estimate D2E/DX2                !
 ! A3    A(3,1,4)              108.6219         estimate D2E/DX2                !
 ! A4    A(1,2,5)              112.1243         estimate D2E/DX2                !
 ! A5    A(1,2,6)              110.7975         estimate D2E/DX2                !
 ! A6    A(5,2,6)              106.2037         estimate D2E/DX2                !
 ! D1    D(3,1,2,5)           -172.0354         estimate D2E/DX2                !
 ! D2    D(3,1,2,6)            -53.5691         estimate D2E/DX2                !
 ! D3    D(4,1,2,5)             67.2864         estimate D2E/DX2                !
 ! D4    D(4,1,2,6)           -174.2473         estimate D2E/DX2                !
 --------------------------------------------------------------------------------
 Trust Radius=3.00D-01 FncErr=1.00D-07 GrdErr=1.00D-06
 Number of steps in this run=     25 maximum allowed number of steps=    100.
 GradGradGradGradGradGradGradGradGradGradGradGradGradGradGradGradGradGrad

 Leave Link  103 at Wed Jun 12 23:24:55 2024, MaxMem=  1073741824 cpu:         0.6
 (Enter /apps/z_install_tree/linux-rocky8-ivybridge/gcc-12.2.0/gaussian-09-D.01-wczn3gur5lpur3omlkzwa2l5ecyxp5ef/g09/l202.exe)
                          Input orientation:                          
 ---------------------------------------------------------------------
 Center     Atomic      Atomic             Coordinates (Angstroms)
 Number     Number       Type             X           Y           Z
 ---------------------------------------------------------------------
      1          6           0       49.582000   35.950000   32.543000
      2          6           0       50.943000   36.295000   31.949000
      3         17           0       49.632000   36.144000   34.319000
      4         17           0       49.095000   34.274000   32.166000
      5          9           0       50.905000   36.344000   30.163000
      6         17           0       51.269000   37.288000   32.275000
 ---------------------------------------------------------------------
                    Distance matrix (angstroms):
                    1          2          3          4          5
     1  C    0.000000
     2  C    1.524527   0.000000
     3  Cl   1.787264   2.712641   0.000000
     4  Cl   1.785574   2.747114   2.901840   0.000000
     5  F    2.751357   1.787076   4.351191   3.401913   0.000000
     6  Cl   2.169801   1.094806   2.857699   3.717843   2.341832
                    6
     6  Cl   0.000000
 Symmetry turned off by external request.
 Stoichiometry    C2Cl3F
 Framework group  C1[X(C2Cl3F)]
 Deg. of freedom    12
 Full point group                 C1      NOp   1
 Rotational constants (GHZ):      2.3500750      1.6940103      1.0011896
 Leave Link  202 at Wed Jun 12 23:24:56 2024, MaxMem=  1073741824 cpu:         0.1
 (Enter /apps/z_install_tree/linux-rocky8-ivybridge/gcc-12.2.0/gaussian-09-D.01-wczn3gur5lpur3omlkzwa2l5ecyxp5ef/g09/l301.exe)
 General basis read from cards:  (5D, 7F)
 Centers:       3      4      6      5      1      2
 6-311+g(2d,2p)
 ****
 Ernie: Thresh=  0.10000D-02 Tol=  0.10000D-05 Strict=F.
   186 basis functions,   303 primitive gaussians,   198 cartesian basis functions
    36 alpha electrons       36 beta electrons
       nuclear repulsion energy       437.3579165876 Hartrees.
 IExCor=  402 DFT=T Ex+Corr=B3LYP ExCW=0 ScaHFX=  0.200000
 ScaDFX=  0.800000  0.720000  1.000000  0.810000 ScalE2=  1.000000  1.000000
 IRadAn=      5 IRanWt=     -1 IRanGd=            0 ICorTp=0 IEmpDi=131
 NAtoms=    6 NActive=    6 NUniq=    6 SFac= 1.00D+00 NAtFMM=   60 NAOKFM=F Big=F
 Integral buffers will be    131072 words long.
 Raffenetti 2 integral format.
 Two-electron integral symmetry is turned off.
 R6Disp:  Grimme-D3 Dispersion energy=       -0.0035612504 Hartrees.
 Nuclear repulsion after empirical dispersion term =      437.3543553372 Hartrees.
 Leave Link  301 at Wed Jun 12 23:24:56 2024, MaxMem=  1073741824 cpu:         0.6
 (Enter /apps/z_install_tree/linux-rocky8-ivybridge/gcc-12.2.0/gaussian-09-D.01-wczn3gur5lpur3omlkzwa2l5ecyxp5ef/g09/l302.exe)
 NPDir=0 NMtPBC=     1 NCelOv=     1 NCel=       1 NClECP=     1 NCelD=      1
         NCelK=      1 NCelE2=     1 NClLst=     1 CellRange=     0.0.
 One-electron integrals computed using PRISM.
 NBasis=   186 RedAO= T EigKep=  4.15D-05  NBF=   186
 NBsUse=   186 1.00D-06 EigRej= -1.00D+00 NBFU=   186
 Precomputing XC quadrature grid using
 IXCGrd= 4 IRadAn=           5 IRanWt=          -1 IRanGd=           0 AccXCQ= 0.00D+00.
 Generated NRdTot=       0 NPtTot=           0 NUsed=           0 NTot=          32
 NSgBfM=   198   198   198   198   198 MxSgAt=     6 MxSgA2=     6.
 Leave Link  302 at Wed Jun 12 23:24:56 2024, MaxMem=  1073741824 cpu:         2.2
 (Enter /apps/z_install_tree/linux-rocky8-ivybridge/gcc-12.2.0/gaussian-09-D.01-wczn3gur5lpur3omlkzwa2l5ecyxp5ef/g09/l303.exe)
 DipDrv:  MaxL=1.
 Leave Link  303 at Wed Jun 12 23:24:56 2024, MaxMem=  1073741824 cpu:         0.3
 (Enter /apps/z_install_tree/linux-rocky8-ivybridge/gcc-12.2.0/gaussian-09-D.01-wczn3gur5lpur3omlkzwa2l5ecyxp5ef/g09/l401.exe)
 ExpMin= 4.38D-02 ExpMax= 1.06D+05 ExpMxC= 3.62D+03 IAcc=3 IRadAn=         5 AccDes= 0.00D+00
 Harris functional with IExCor=  402 and IRadAn=       5 diagonalized for initial guess.
 HarFok:  IExCor=  402 AccDes= 0.00D+00 IRadAn=         5 IDoV= 1 UseB2=F ITyADJ=14
 ICtDFT=  3500011 ScaDFX=  1.000000  1.000000  1.000000  1.000000
 FoFCou: FMM=F IPFlag=           0 FMFlag=      100000 FMFlg1=           0
         NFxFlg=           0 DoJE=T BraDBF=F KetDBF=T FulRan=T
         wScrn=  0.000000 ICntrl=     500 IOpCl=  0 I1Cent=   200000004 NGrid=           0
         NMat0=    1 NMatS0=      1 NMatT0=    0 NMatD0=    1 NMtDS0=    0 NMtDT0=    0
 Symmetry not used in FoFCou.
 Harris En= -1555.98545066261    
 JPrj=0 DoOrth=F DoCkMO=F.
 Leave Link  401 at Wed Jun 12 23:24:56 2024, MaxMem=  1073741824 cpu:         3.4
 (Enter /apps/z_install_tree/linux-rocky8-ivybridge/gcc-12.2.0/gaussian-09-D.01-wczn3gur5lpur3omlkzwa2l5ecyxp5ef/g09/l502.exe)
 Closed shell SCF:
 Using DIIS extrapolation, IDIIS=  1040.
 Two-electron integral symmetry not used.
 Keep R1 ints in memory in canonical form, NReq=155306330.
 IVT=      133994 IEndB=      133994 NGot=  1073741824 MDV=   922375695
 LenX=   922375695 LenY=   922336050
 Requested convergence on RMS density matrix=1.00D-08 within  96 cycles.
 Requested convergence on MAX density matrix=1.00D-06.
 Requested convergence on             energy=1.00D-06.
 No special actions if energy rises.
 FoFCou: FMM=F IPFlag=           0 FMFlag=           0 FMFlg1=           0
         NFxFlg=           0 DoJE=F BraDBF=F KetDBF=F FulRan=T
         wScrn=  0.000000 ICntrl=     600 IOpCl=  0 I1Cent=           0 NGrid=           0
         NMat0=    1 NMatS0=  17391 NMatT0=    0 NMatD0=    1 NMtDS0=    0 NMtDT0=    0
 Symmetry not used in FoFCou.

 Cycle   1  Pass 1  IDiag  1:
 E= -1555.68203023330    
 DIIS: error= 3.04D-02 at cycle   1 NSaved=   1.
 NSaved= 1 IEnMin= 1 EnMin= -1555.68203023330     IErMin= 1 ErrMin= 3.04D-02
 ErrMax= 3.04D-02  0.00D+00 EMaxC= 1.00D-01 BMatC= 4.45D-01 BMatP= 4.45D-01
 IDIUse=3 WtCom= 6.96D-01 WtEn= 3.04D-01
 Coeff-Com:  0.100D+01
 Coeff-En:   0.100D+01
 Coeff:      0.100D+01
 Gap=     0.041 Goal=   None    Shift=    0.000
 GapD=    0.041 DampG=0.250 DampE=0.500 DampFc=0.2500 IDamp=-1.
 Damping current iteration by 2.50D-01
 RMSDP=1.07D-01 MaxDP=1.27D+01              OVMax= 7.80D-01

 Cycle   2  Pass 1  IDiag  1:
 E= -1555.53155314543     Delta-E=        0.150477087874 Rises=F Damp=T
 DIIS: error= 1.71D-02 at cycle   2 NSaved=   2.
 NSaved= 2 IEnMin= 1 EnMin= -1555.68203023330     IErMin= 2 ErrMin= 1.71D-02
 ErrMax= 1.71D-02  0.00D+00 EMaxC= 1.00D-01 BMatC= 1.56D-01 BMatP= 4.45D-01
 IDIUse=3 WtCom= 8.29D-01 WtEn= 1.71D-01
 Coeff-Com:  0.177D+00 0.823D+00
 Coeff-En:   0.665D+00 0.335D+00
 Coeff:      0.260D+00 0.740D+00
 Gap=     0.171 Goal=   None    Shift=    0.000
 RMSDP=2.63D-02 MaxDP=2.98D+00 DE= 1.50D-01 OVMax= 8.96D-01

 Cycle   3  Pass 1  IDiag  1:
 E= -1555.72765632346     Delta-E=       -0.196103178038 Rises=F Damp=F
 DIIS: error= 3.24D-02 at cycle   3 NSaved=   3.
 NSaved= 3 IEnMin= 3 EnMin= -1555.72765632346     IErMin= 2 ErrMin= 1.71D-02
 ErrMax= 3.24D-02  0.00D+00 EMaxC= 1.00D-01 BMatC= 3.62D-01 BMatP= 1.56D-01
 IDIUse=2 WtCom= 0.00D+00 WtEn= 1.00D+00
 EnCoef did     2 forward-backward iterations
 Coeff-En:   0.319D+00 0.188D+00 0.494D+00
 Coeff:      0.319D+00 0.188D+00 0.494D+00
 Gap=     0.107 Goal=   None    Shift=    0.000
 RMSDP=1.64D-02 MaxDP=8.82D-01 DE=-1.96D-01 OVMax= 6.19D-01

 Cycle   4  Pass 1  IDiag  1:
 E= -1554.59199651617     Delta-E=        1.135659807289 Rises=F Damp=F
 DIIS: error= 7.40D-02 at cycle   4 NSaved=   4.
 NSaved= 4 IEnMin= 3 EnMin= -1555.72765632346     IErMin= 2 ErrMin= 1.71D-02
 ErrMax= 7.40D-02  0.00D+00 EMaxC= 1.00D-01 BMatC= 1.78D+00 BMatP= 1.56D-01
 IDIUse=2 WtCom= 0.00D+00 WtEn= 1.00D+00
 EnCoef did     3 forward-backward iterations
 Coeff-En:   0.325D+00 0.000D+00 0.487D+00 0.188D+00
 Coeff:      0.325D+00 0.000D+00 0.487D+00 0.188D+00
 Gap=     0.097 Goal=   None    Shift=    0.000
 RMSDP=1.18D-02 MaxDP=8.03D-01 DE= 1.14D+00 OVMax= 5.14D-01

 Cycle   5  Pass 1  IDiag  1:
 E= -1555.99029896696     Delta-E=       -1.398302450787 Rises=F Damp=F
 DIIS: error= 1.50D-02 at cycle   5 NSaved=   5.
 NSaved= 5 IEnMin= 5 EnMin= -1555.99029896696     IErMin= 5 ErrMin= 1.50D-02
 ErrMax= 1.50D-02  0.00D+00 EMaxC= 1.00D-01 BMatC= 6.72D-02 BMatP= 1.56D-01
 IDIUse=3 WtCom= 8.50D-01 WtEn= 1.50D-01
 Coeff-Com:  0.103D+00 0.107D-01 0.213D+00-0.352D-01 0.708D+00
 Coeff-En:   0.000D+00 0.000D+00 0.153D+00 0.000D+00 0.847D+00
 Coeff:      0.879D-01 0.914D-02 0.204D+00-0.299D-01 0.729D+00
 Gap=     0.085 Goal=   None    Shift=    0.000
 RMSDP=2.81D-03 MaxDP=1.74D-01 DE=-1.40D+00 OVMax= 1.78D-01

 Cycle   6  Pass 1  IDiag  1:
 E= -1556.02262373161     Delta-E=       -0.032324764652 Rises=F Damp=F
 DIIS: error= 5.66D-03 at cycle   6 NSaved=   6.
 NSaved= 6 IEnMin= 6 EnMin= -1556.02262373161     IErMin= 6 ErrMin= 5.66D-03
 ErrMax= 5.66D-03  0.00D+00 EMaxC= 1.00D-01 BMatC= 1.23D-02 BMatP= 6.72D-02
 IDIUse=3 WtCom= 9.43D-01 WtEn= 5.66D-02
 Coeff-Com:  0.807D-01-0.654D-01 0.122D+00-0.241D-01 0.535D+00 0.352D+00
 Coeff-En:   0.000D+00 0.000D+00 0.000D+00 0.000D+00 0.231D+00 0.769D+00
 Coeff:      0.761D-01-0.617D-01 0.115D+00-0.227D-01 0.518D+00 0.375D+00
 Gap=     0.096 Goal=   None    Shift=    0.000
 RMSDP=1.89D-03 MaxDP=5.77D-02 DE=-3.23D-02 OVMax= 1.46D-01

 Cycle   7  Pass 1  IDiag  1:
 E= -1556.03016978491     Delta-E=       -0.007546053298 Rises=F Damp=F
 DIIS: error= 4.82D-03 at cycle   7 NSaved=   7.
 NSaved= 7 IEnMin= 7 EnMin= -1556.03016978491     IErMin= 7 ErrMin= 4.82D-03
 ErrMax= 4.82D-03  0.00D+00 EMaxC= 1.00D-01 BMatC= 6.53D-03 BMatP= 1.23D-02
 IDIUse=3 WtCom= 9.52D-01 WtEn= 4.82D-02
 Coeff-Com:  0.379D-01-0.486D-01 0.291D-01-0.931D-02 0.299D-01 0.295D+00
 Coeff-Com:  0.666D+00
 Coeff-En:   0.000D+00 0.000D+00 0.000D+00 0.000D+00 0.000D+00 0.354D+00
 Coeff-En:   0.646D+00
 Coeff:      0.360D-01-0.463D-01 0.277D-01-0.886D-02 0.284D-01 0.298D+00
 Coeff:      0.665D+00
 Gap=     0.095 Goal=   None    Shift=    0.000
 RMSDP=9.96D-04 MaxDP=5.58D-02 DE=-7.55D-03 OVMax= 4.80D-02

 Cycle   8  Pass 1  IDiag  1:
 E= -1556.03659980612     Delta-E=       -0.006430021208 Rises=F Damp=F
 DIIS: error= 1.23D-03 at cycle   8 NSaved=   8.
 NSaved= 8 IEnMin= 8 EnMin= -1556.03659980612     IErMin= 8 ErrMin= 1.23D-03
 ErrMax= 1.23D-03  0.00D+00 EMaxC= 1.00D-01 BMatC= 3.89D-04 BMatP= 6.53D-03
 IDIUse=3 WtCom= 9.88D-01 WtEn= 1.23D-02
 Coeff-Com:  0.121D-01-0.158D-01 0.862D-02-0.207D-02-0.381D-01 0.349D-01
 Coeff-Com:  0.111D+00 0.890D+00
 Coeff-En:   0.000D+00 0.000D+00 0.000D+00 0.000D+00 0.000D+00 0.000D+00
 Coeff-En:   0.000D+00 0.100D+01
 Coeff:      0.120D-01-0.156D-01 0.852D-02-0.204D-02-0.376D-01 0.344D-01
 Coeff:      0.109D+00 0.891D+00
 Gap=     0.095 Goal=   None    Shift=    0.000
 RMSDP=1.71D-04 MaxDP=9.70D-03 DE=-6.43D-03 OVMax= 5.35D-03

 Cycle   9  Pass 1  IDiag  1:
 E= -1556.03691014252     Delta-E=       -0.000310336404 Rises=F Damp=F
 DIIS: error= 3.29D-04 at cycle   9 NSaved=   9.
 NSaved= 9 IEnMin= 9 EnMin= -1556.03691014252     IErMin= 9 ErrMin= 3.29D-04
 ErrMax= 3.29D-04  0.00D+00 EMaxC= 1.00D-01 BMatC= 2.53D-05 BMatP= 3.89D-04
 IDIUse=3 WtCom= 9.97D-01 WtEn= 3.29D-03
 Coeff-Com:  0.243D-02-0.273D-02 0.348D-02-0.110D-03-0.923D-02-0.273D-01
 Coeff-Com: -0.643D-01 0.374D+00 0.724D+00
 Coeff-En:   0.000D+00 0.000D+00 0.000D+00 0.000D+00 0.000D+00 0.000D+00
 Coeff-En:   0.000D+00 0.000D+00 0.100D+01
 Coeff:      0.243D-02-0.272D-02 0.347D-02-0.110D-03-0.920D-02-0.272D-01
 Coeff:     -0.641D-01 0.372D+00 0.725D+00
 Gap=     0.095 Goal=   None    Shift=    0.000
 RMSDP=9.16D-05 MaxDP=5.68D-03 DE=-3.10D-04 OVMax= 2.07D-03

 Cycle  10  Pass 1  IDiag  1:
 E= -1556.03693563345     Delta-E=       -0.000025490928 Rises=F Damp=F
 DIIS: error= 5.07D-05 at cycle  10 NSaved=  10.
 NSaved=10 IEnMin=10 EnMin= -1556.03693563345     IErMin=10 ErrMin= 5.07D-05
 ErrMax= 5.07D-05  0.00D+00 EMaxC= 1.00D-01 BMatC= 1.76D-06 BMatP= 2.53D-05
 IDIUse=1 WtCom= 1.00D+00 WtEn= 0.00D+00
 Coeff-Com:  0.411D-04 0.206D-03 0.129D-02-0.157D-04 0.786D-04-0.135D-01
 Coeff-Com: -0.325D-01 0.768D-01 0.312D+00 0.655D+00
 Coeff:      0.411D-04 0.206D-03 0.129D-02-0.157D-04 0.786D-04-0.135D-01
 Coeff:     -0.325D-01 0.768D-01 0.312D+00 0.655D+00
 Gap=     0.095 Goal=   None    Shift=    0.000
 RMSDP=2.17D-05 MaxDP=1.08D-03 DE=-2.55D-05 OVMax= 5.26D-04

 Cycle  11  Pass 1  IDiag  1:
 E= -1556.03693727136     Delta-E=       -0.000001637907 Rises=F Damp=F
 DIIS: error= 2.57D-05 at cycle  11 NSaved=  11.
 NSaved=11 IEnMin=11 EnMin= -1556.03693727136     IErMin=11 ErrMin= 2.57D-05
 ErrMax= 2.57D-05  0.00D+00 EMaxC= 1.00D-01 BMatC= 2.71D-07 BMatP= 1.76D-06
 IDIUse=1 WtCom= 1.00D+00 WtEn= 0.00D+00
 Coeff-Com: -0.104D-03 0.159D-03 0.106D-03 0.181D-04 0.611D-03-0.164D-03
 Coeff-Com:  0.435D-03-0.151D-02 0.230D-01 0.211D+00 0.766D+00
 Coeff:     -0.104D-03 0.159D-03 0.106D-03 0.181D-04 0.611D-03-0.164D-03
 Coeff:      0.435D-03-0.151D-02 0.230D-01 0.211D+00 0.766D+00
 Gap=     0.095 Goal=   None    Shift=    0.000
 RMSDP=7.93D-06 MaxDP=2.66D-04 DE=-1.64D-06 OVMax= 1.35D-04

 Cycle  12  Pass 1  IDiag  1:
 E= -1556.03693749418     Delta-E=       -0.000000222825 Rises=F Damp=F
 DIIS: error= 7.77D-06 at cycle  12 NSaved=  12.
 NSaved=12 IEnMin=12 EnMin= -1556.03693749418     IErMin=12 ErrMin= 7.77D-06
 ErrMax= 7.77D-06  0.00D+00 EMaxC= 1.00D-01 BMatC= 3.26D-08 BMatP= 2.71D-07
 IDIUse=1 WtCom= 1.00D+00 WtEn= 0.00D+00
 Coeff-Com: -0.599D-04 0.584D-04-0.411D-04-0.257D-05 0.282D-03 0.925D-03
 Coeff-Com:  0.319D-02-0.461D-02-0.929D-02 0.519D-01 0.339D+00 0.619D+00
 Coeff:     -0.599D-04 0.584D-04-0.411D-04-0.257D-05 0.282D-03 0.925D-03
 Coeff:      0.319D-02-0.461D-02-0.929D-02 0.519D-01 0.339D+00 0.619D+00
 Gap=     0.095 Goal=   None    Shift=    0.000
 RMSDP=2.51D-06 MaxDP=9.70D-05 DE=-2.23D-07 OVMax= 9.83D-05

 Cycle  13  Pass 1  IDiag  1:
 E= -1556.03693752131     Delta-E=       -0.000000027128 Rises=F Damp=F
 DIIS: error= 3.55D-06 at cycle  13 NSaved=  13.
 NSaved=13 IEnMin=13 EnMin= -1556.03693752131     IErMin=13 ErrMin= 3.55D-06
 ErrMax= 3.55D-06  0.00D+00 EMaxC= 1.00D-01 BMatC= 4.66D-09 BMatP= 3.26D-08
 IDIUse=1 WtCom= 1.00D+00 WtEn= 0.00D+00
 Coeff-Com: -0.133D-04 0.468D-05-0.350D-04 0.336D-05 0.505D-04 0.496D-03
 Coeff-Com:  0.176D-02-0.139D-02-0.629D-02 0.432D-02 0.906D-01 0.329D+00
 Coeff-Com:  0.582D+00
 Coeff:     -0.133D-04 0.468D-05-0.350D-04 0.336D-05 0.505D-04 0.496D-03
 Coeff:      0.176D-02-0.139D-02-0.629D-02 0.432D-02 0.906D-01 0.329D+00
 Coeff:      0.582D+00
 Gap=     0.095 Goal=   None    Shift=    0.000
 RMSDP=9.13D-07 MaxDP=2.38D-05 DE=-2.71D-08 OVMax= 2.80D-05

 Cycle  14  Pass 1  IDiag  1:
 E= -1556.03693752574     Delta-E=       -0.000000004431 Rises=F Damp=F
 DIIS: error= 8.74D-07 at cycle  14 NSaved=  14.
 NSaved=14 IEnMin=14 EnMin= -1556.03693752574     IErMin=14 ErrMin= 8.74D-07
 ErrMax= 8.74D-07  0.00D+00 EMaxC= 1.00D-01 BMatC= 3.56D-10 BMatP= 4.66D-09
 IDIUse=1 WtCom= 1.00D+00 WtEn= 0.00D+00
 Coeff-Com: -0.137D-05-0.176D-06-0.107D-04 0.759D-06-0.750D-05 0.478D-04
 Coeff-Com:  0.395D-03-0.130D-03-0.122D-02-0.371D-02-0.504D-02 0.533D-01
 Coeff-Com:  0.232D+00 0.724D+00
 Coeff:     -0.137D-05-0.176D-06-0.107D-04 0.759D-06-0.750D-05 0.478D-04
 Coeff:      0.395D-03-0.130D-03-0.122D-02-0.371D-02-0.504D-02 0.533D-01
 Coeff:      0.232D+00 0.724D+00
 Gap=     0.095 Goal=   None    Shift=    0.000
 RMSDP=2.97D-07 MaxDP=1.15D-05 DE=-4.43D-09 OVMax= 7.75D-06

 Cycle  15  Pass 1  IDiag  1:
 E= -1556.03693752611     Delta-E=       -0.000000000365 Rises=F Damp=F
 DIIS: error= 2.57D-07 at cycle  15 NSaved=  15.
 NSaved=15 IEnMin=15 EnMin= -1556.03693752611     IErMin=15 ErrMin= 2.57D-07
 ErrMax= 2.57D-07  0.00D+00 EMaxC= 1.00D-01 BMatC= 2.84D-11 BMatP= 3.56D-10
 IDIUse=1 WtCom= 1.00D+00 WtEn= 0.00D+00
 Coeff-Com:  0.353D-06 0.492D-06-0.206D-05-0.173D-07-0.320D-05-0.297D-04
 Coeff-Com:  0.314D-04 0.262D-04-0.638D-04-0.155D-02-0.801D-02-0.648D-02
 Coeff-Com:  0.371D-01 0.209D+00 0.770D+00
 Coeff:      0.353D-06 0.492D-06-0.206D-05-0.173D-07-0.320D-05-0.297D-04
 Coeff:      0.314D-04 0.262D-04-0.638D-04-0.155D-02-0.801D-02-0.648D-02
 Coeff:      0.371D-01 0.209D+00 0.770D+00
 Gap=     0.095 Goal=   None    Shift=    0.000
 RMSDP=6.01D-08 MaxDP=3.40D-06 DE=-3.65D-10 OVMax= 1.99D-06

 Cycle  16  Pass 1  IDiag  1:
 E= -1556.03693752612     Delta-E=       -0.000000000014 Rises=F Damp=F
 DIIS: error= 8.16D-08 at cycle  16 NSaved=  16.
 NSaved=16 IEnMin=16 EnMin= -1556.03693752612     IErMin=16 ErrMin= 8.16D-08
 ErrMax= 8.16D-08  0.00D+00 EMaxC= 1.00D-01 BMatC= 2.08D-12 BMatP= 2.84D-11
 IDIUse=1 WtCom= 1.00D+00 WtEn= 0.00D+00
 Coeff-Com:  0.423D-06-0.359D-06-0.339D-06 0.321D-08 0.603D-07-0.139D-04
 Coeff-Com: -0.929D-05 0.221D-04 0.378D-04-0.208D-03-0.205D-02-0.499D-02
 Coeff-Com: -0.361D-02 0.141D-01 0.189D+00 0.807D+00
 Coeff:      0.423D-06-0.359D-06-0.339D-06 0.321D-08 0.603D-07-0.139D-04
 Coeff:     -0.929D-05 0.221D-04 0.378D-04-0.208D-03-0.205D-02-0.499D-02
 Coeff:     -0.361D-02 0.141D-01 0.189D+00 0.807D+00
 Gap=     0.095 Goal=   None    Shift=    0.000
 RMSDP=2.59D-08 MaxDP=1.14D-06 DE=-1.39D-11 OVMax= 6.46D-07

 Cycle  17  Pass 1  IDiag  1:
 E= -1556.03693752613     Delta-E=       -0.000000000006 Rises=F Damp=F
 DIIS: error= 1.74D-08 at cycle  17 NSaved=  17.
 NSaved=17 IEnMin=17 EnMin= -1556.03693752613     IErMin=17 ErrMin= 1.74D-08
 ErrMax= 1.74D-08  0.00D+00 EMaxC= 1.00D-01 BMatC= 1.05D-13 BMatP= 2.08D-12
 IDIUse=1 WtCom= 1.00D+00 WtEn= 0.00D+00
 Coeff-Com:  0.121D-06-0.181D-06-0.298D-07 0.743D-08-0.570D-07-0.226D-05
 Coeff-Com: -0.220D-05-0.314D-06 0.219D-05 0.705D-04 0.183D-03-0.265D-03
 Coeff-Com: -0.334D-02-0.120D-01-0.214D-01 0.257D+00 0.780D+00
 Coeff:      0.121D-06-0.181D-06-0.298D-07 0.743D-08-0.570D-07-0.226D-05
 Coeff:     -0.220D-05-0.314D-06 0.219D-05 0.705D-04 0.183D-03-0.265D-03
 Coeff:     -0.334D-02-0.120D-01-0.214D-01 0.257D+00 0.780D+00
 Gap=     0.095 Goal=   None    Shift=    0.000
 RMSDP=5.45D-09 MaxDP=1.82D-07 DE=-6.37D-12 OVMax= 1.91D-07

 SCF Done:  E(RB3LYP) =  -1556.03693753     A.U. after   17 cycles
            NFock= 17  Conv=0.54D-08     -V/T= 2.0001
 KE= 1.555923621609D+03 PE=-4.572330600846D+03 EE= 1.023015686374D+03
 Leave Link  502 at Wed Jun 12 23:25:01 2024, MaxMem=  1073741824 cpu:        58.6
 (Enter /apps/z_install_tree/linux-rocky8-ivybridge/gcc-12.2.0/gaussian-09-D.01-wczn3gur5lpur3omlkzwa2l5ecyxp5ef/g09/l508.exe)
 QCSCF skips out because SCF is already converged.
 Leave Link  508 at Wed Jun 12 23:25:02 2024, MaxMem=  1073741824 cpu:         0.0
 (Enter /apps/z_install_tree/linux-rocky8-ivybridge/gcc-12.2.0/gaussian-09-D.01-wczn3gur5lpur3omlkzwa2l5ecyxp5ef/g09/l601.exe)
 Copying SCF densities to generalized density rwf, IOpCl= 0 IROHF=0.

 **********************************************************************

            Population analysis using the SCF density.

 **********************************************************************

 Alpha  occ. eigenvalues -- -101.65026-101.59521-101.56384 -24.62732 -10.33207
 Alpha  occ. eigenvalues --  -10.31974  -9.61306  -9.50890  -9.47750  -7.37513
 Alpha  occ. eigenvalues --   -7.36240  -7.36188  -7.27344  -7.26391  -7.26347
 Alpha  occ. eigenvalues --   -7.24239  -7.23237  -7.23188  -1.21117  -1.09388
 Alpha  occ. eigenvalues --   -0.92245  -0.84266  -0.73420  -0.66465  -0.62477
 Alpha  occ. eigenvalues --   -0.57703  -0.50917  -0.44737  -0.40593  -0.37325
 Alpha  occ. eigenvalues --   -0.36447  -0.36012  -0.35539  -0.33608  -0.31483
 Alpha  occ. eigenvalues --   -0.25244
 Alpha virt. eigenvalues --   -0.15732  -0.09670  -0.02533  -0.00862   0.00883
 Alpha virt. eigenvalues --    0.02203   0.03078   0.05048   0.05820   0.06921
 Alpha virt. eigenvalues --    0.07503   0.07788   0.08281   0.09299   0.11088
 Alpha virt. eigenvalues --    0.11842   0.11952   0.12269   0.12932   0.14115
 Alpha virt. eigenvalues --    0.15535   0.15889   0.16907   0.19062   0.20002
 Alpha virt. eigenvalues --    0.20949   0.26017   0.28167   0.31411   0.32556
 Alpha virt. eigenvalues --    0.34011   0.34248   0.35751   0.36958   0.38737
 Alpha virt. eigenvalues --    0.39206   0.40690   0.41543   0.42399   0.43583
 Alpha virt. eigenvalues --    0.44424   0.44490   0.45435   0.47267   0.47674
 Alpha virt. eigenvalues --    0.50448   0.50873   0.52400   0.55283   0.55903
 Alpha virt. eigenvalues --    0.57036   0.59414   0.62854   0.66150   0.67357
 Alpha virt. eigenvalues --    0.68624   0.71631   0.75504   0.78867   0.84805
 Alpha virt. eigenvalues --    0.87432   0.94403   1.00554   1.03088   1.06977
 Alpha virt. eigenvalues --    1.09695   1.15322   1.19307   1.22292   1.22879
 Alpha virt. eigenvalues --    1.26826   1.29788   1.35346   1.39461   1.43433
 Alpha virt. eigenvalues --    1.44761   1.48167   1.60466   1.95942   2.01430
 Alpha virt. eigenvalues --    2.05442   2.10884   2.14204   2.18573   2.20280
 Alpha virt. eigenvalues --    2.22171   2.22817   2.26056   2.26330   2.27435
 Alpha virt. eigenvalues --    2.28869   2.29831   2.31261   2.34129   2.35902
 Alpha virt. eigenvalues --    2.39132   2.39841   2.42724   2.42995   2.44954
 Alpha virt. eigenvalues --    2.48004   2.50837   2.53369   2.56606   2.57528
 Alpha virt. eigenvalues --    2.60109   2.63505   2.70759   2.80718   2.88554
 Alpha virt. eigenvalues --    3.14212   3.20129   3.34195   3.35660   3.38198
 Alpha virt. eigenvalues --    3.42707   3.44992   3.50196   3.52452   3.53626
 Alpha virt. eigenvalues --    3.58088   3.69276   3.96332   4.66963   6.38505
 Alpha virt. eigenvalues --    6.41322   6.47376   9.10006   9.10155   9.19848
 Alpha virt. eigenvalues --    9.24051   9.43324   9.71138   9.77096  10.04856
 Alpha virt. eigenvalues --   23.45871  24.18824  25.81998  25.84172  25.94057
 Alpha virt. eigenvalues --   26.00552  26.10223  26.43691  26.93634  27.22793
 Alpha virt. eigenvalues --   28.26545  66.83927 215.70876 215.76334 216.21695
          Condensed to atoms (all electrons):
               1          2          3          4          5          6
     1  C    7.135721  -0.933050  -0.324942   0.114874  -0.107092  -0.132507
     2  C   -0.933050   8.342891   0.251912  -0.059175   0.092629  -0.957074
     3  Cl  -0.324942   0.251912  17.066203   0.030699   0.010938   0.052467
     4  Cl   0.114874  -0.059175   0.030699  16.905030   0.016345   0.081341
     5  F   -0.107092   0.092629   0.010938   0.016345   9.331974   0.013397
     6  Cl  -0.132507  -0.957074   0.052467   0.081341   0.013397  16.916658
 Mulliken charges:
               1
     1  C    0.246997
     2  C   -0.738133
     3  Cl  -0.087277
     4  Cl  -0.089113
     5  F   -0.358191
     6  Cl   1.025717
 Sum of Mulliken charges =   0.00000
 Mulliken charges with hydrogens summed into heavy atoms:
               1
     1  C    0.246997
     2  C   -0.738133
     3  Cl  -0.087277
     4  Cl  -0.089113
     5  F   -0.358191
     6  Cl   1.025717
 Electronic spatial extent (au):  <R**2>=        1251435.8991
 Charge=              0.0000 electrons
 Dipole moment (field-independent basis, Debye):
    X=              2.0234    Y=              2.7023    Z=              3.1173  Tot=              4.5951
 Quadrupole moment (field-independent basis, Debye-Ang):
   XX=            151.4959   YY=            145.5302   ZZ=            140.2643
   XY=            210.7688   XZ=            224.4429   YZ=            200.5726
 Traceless Quadrupole moment (field-independent basis, Debye-Ang):
   XX=              5.7324   YY=             -0.2333   ZZ=             -5.4992
   XY=            210.7688   XZ=            224.4429   YZ=            200.5726
 Octapole moment (field-independent basis, Debye-Ang**2):
  XXX=           7539.3290  YYY=           5223.5729  ZZZ=           3822.4175  XYY=          10100.2994
  XXY=          12497.4560  XXZ=          12999.8118  XZZ=           9319.3328  YZZ=           7938.2537
  YYZ=           8804.2600  XYZ=          12588.7362
 Hexadecapole moment (field-independent basis, Debye-Ang**3):
 XXXX=         246854.1503 YYYY=         124499.8936 ZZZZ=          35495.5117 XXXY=         631194.5548
 XXXZ=         656081.8055 YYYX=         366313.8460 YYYZ=         316895.5599 ZZZX=         268210.1340
 ZZZY=         232070.1487 XXYY=         580697.5221 XXZZ=         527510.3212 YYZZ=         337615.5903
 XXYZ=         698224.2799 YYXZ=         535664.6164 ZZXY=         482861.6500
 N-N= 4.373543553372D+02 E-N=-4.572330599105D+03  KE= 1.555923621609D+03
 No NMR shielding tensors so no spin-rotation constants.
 Leave Link  601 at Wed Jun 12 23:25:02 2024, MaxMem=  1073741824 cpu:         1.4
 (Enter /apps/z_install_tree/linux-rocky8-ivybridge/gcc-12.2.0/gaussian-09-D.01-wczn3gur5lpur3omlkzwa2l5ecyxp5ef/g09/l701.exe)
 Compute integral first derivatives.
 ... and contract with generalized density number  0.
 R6Disp: Adding Grimme-D3 dispersion energy 1st derivatives to the gradient.
 Leave Link  701 at Wed Jun 12 23:25:02 2024, MaxMem=  1073741824 cpu:         1.6
 (Enter /apps/z_install_tree/linux-rocky8-ivybridge/gcc-12.2.0/gaussian-09-D.01-wczn3gur5lpur3omlkzwa2l5ecyxp5ef/g09/l702.exe)
 L702 exits ... SP integral derivatives will be done elsewhere.
 Leave Link  702 at Wed Jun 12 23:25:02 2024, MaxMem=  1073741824 cpu:         0.2
 (Enter /apps/z_install_tree/linux-rocky8-ivybridge/gcc-12.2.0/gaussian-09-D.01-wczn3gur5lpur3omlkzwa2l5ecyxp5ef/g09/l703.exe)
 Compute integral first derivatives, UseDBF=F ICtDFT=           0.
 Integral derivatives from FoFJK, PRISM(SPDF).
 Calling FoFJK, ICntrl=      2127 FMM=F ISym2X=0 I1Cent= 0 IOpClX= 0 NMat=1 NMatS=1 NMatT=0.
 FoFJK:  IHMeth= 1 ICntrl=    2127 DoSepK=F KAlg= 0 I1Cent=   0 FoldK=F
 IRaf=         0 NMat=   1 IRICut=       1 DoRegI=T DoRafI=F ISym2E= 0.
 FoFCou: FMM=F IPFlag=           0 FMFlag=      100000 FMFlg1=         800
         NFxFlg=           0 DoJE=F BraDBF=F KetDBF=F FulRan=T
         wScrn=  0.000000 ICntrl=    2127 IOpCl=  0 I1Cent=           0 NGrid=           0
         NMat0=    1 NMatS0=      1 NMatT0=    0 NMatD0=    1 NMtDS0=    0 NMtDT0=    0
 Symmetry not used in FoFCou.
 Leave Link  703 at Wed Jun 12 23:25:03 2024, MaxMem=  1073741824 cpu:        13.0
 (Enter /apps/z_install_tree/linux-rocky8-ivybridge/gcc-12.2.0/gaussian-09-D.01-wczn3gur5lpur3omlkzwa2l5ecyxp5ef/g09/l716.exe)
 Dipole        = 7.96081818D-01 1.06318392D+00 1.22644854D+00
 -------------------------------------------------------------------
 Center     Atomic                   Forces (Hartrees/Bohr)
 Number     Number              X              Y              Z
 -------------------------------------------------------------------
      1        6           0.011834913   -0.106253302   -0.018675761
      2        6          -0.622790135   -1.490613382   -0.515686390
      3       17          -0.006605218    0.007804877    0.000649306
      4       17          -0.012391240    0.005741459   -0.003021597
      5        9           0.000742360   -0.018876037    0.034718914
      6       17           0.629209320    1.602196385    0.502015528
 -------------------------------------------------------------------
 Cartesian Forces:  Max     1.602196385 RMS     0.582348070
 Leave Link  716 at Wed Jun 12 23:25:03 2024, MaxMem=  1073741824 cpu:         0.7
 (Enter /apps/z_install_tree/linux-rocky8-ivybridge/gcc-12.2.0/gaussian-09-D.01-wczn3gur5lpur3omlkzwa2l5ecyxp5ef/g09/l103.exe)

 GradGradGradGradGradGradGradGradGradGradGradGradGradGradGradGradGradGrad
 Berny optimization.
 FormGI is forming the generalized inverse of G from B-inverse, IUseBI=4.
 Internal  Forces:  Max     1.790051658 RMS     0.465620621
 Search for a local minimum.
 Step number   1 out of a maximum of   25
 All quantities printed in internal units (Hartrees-Bohrs-Radians)
 RMS Force = .46562D+00 SwitMx=.10000D-02 MixMth= 1
 Mixed Optimization -- RFO/linear search
 Second derivative matrix not updated -- first step.
 The second derivative matrix:
                          R1        R2        R3        R4        R5
           R1           0.29935
           R2           0.00000   0.27146
           R3           0.00000   0.00000   0.27287
           R4           0.00000   0.00000   0.00000   0.14400
           R5           0.00000   0.00000   0.00000   0.00000  10.60139
           A1           0.00000   0.00000   0.00000   0.00000   0.00000
           A2           0.00000   0.00000   0.00000   0.00000   0.00000
           A3           0.00000   0.00000   0.00000   0.00000   0.00000
           A4           0.00000   0.00000   0.00000   0.00000   0.00000
           A5           0.00000   0.00000   0.00000   0.00000   0.00000
           A6           0.00000   0.00000   0.00000   0.00000   0.00000
           D1           0.00000   0.00000   0.00000   0.00000   0.00000
           D2           0.00000   0.00000   0.00000   0.00000   0.00000
           D3           0.00000   0.00000   0.00000   0.00000   0.00000
           D4           0.00000   0.00000   0.00000   0.00000   0.00000
                          A1        A2        A3        A4        A5
           A1           0.25000
           A2           0.00000   0.25000
           A3           0.00000   0.00000   0.25000
           A4           0.00000   0.00000   0.00000   0.25000
           A5           0.00000   0.00000   0.00000   0.00000   0.25000
           A6           0.00000   0.00000   0.00000   0.00000   0.00000
           D1           0.00000   0.00000   0.00000   0.00000   0.00000
           D2           0.00000   0.00000   0.00000   0.00000   0.00000
           D3           0.00000   0.00000   0.00000   0.00000   0.00000
           D4           0.00000   0.00000   0.00000   0.00000   0.00000
                          A6        D1        D2        D3        D4
           A6           0.25000
           D1           0.00000   0.00442
           D2           0.00000   0.00000   0.00442
           D3           0.00000   0.00000   0.00000   0.00442
           D4           0.00000   0.00000   0.00000   0.00000   0.00442
 ITU=  0
     Eigenvalues ---    0.00442   0.07484   0.07532   0.14400   0.25000
     Eigenvalues ---    0.25000   0.25000   0.25000   0.27146   0.27287
     Eigenvalues ---    0.29935  10.60139
 RFO step:  Lambda=-3.74539978D-01 EMin= 4.41504737D-03
 Linear search not attempted -- first point.
 Maximum step size (   0.300) exceeded in Quadratic search.
    -- Step size scaled by   0.802
 Iteration  1 RMS(Cart)=  0.10448207 RMS(Int)=  0.01879776
 Iteration  2 RMS(Cart)=  0.02722305 RMS(Int)=  0.00337962
 Iteration  3 RMS(Cart)=  0.00076062 RMS(Int)=  0.00329235
 Iteration  4 RMS(Cart)=  0.00000216 RMS(Int)=  0.00329235
 Iteration  5 RMS(Cart)=  0.00000002 RMS(Int)=  0.00329235
 ITry= 1 IFail=0 DXMaxC= 3.46D-01 DCOld= 1.00D+10 DXMaxT= 3.00D-01 DXLimC= 3.00D+00 Rises=F
 Variable       Old X    -DE/DX   Delta X   Delta X   Delta X     New X
                                 (Linear)    (Quad)   (Total)
    R1        2.88094   0.01917   0.00000   0.02280   0.02280   2.90374
    R2        3.37744   0.00131   0.00000   0.00162   0.00162   3.37906
    R3        3.37425  -0.00137   0.00000  -0.00170  -0.00170   3.37255
    R4        3.37708  -0.03523   0.00000  -0.05446  -0.05446   3.32263
    R5        2.06888   1.79005   0.00000   0.13072   0.13072   2.19961
    A1        1.91520   0.01391   0.00000   0.02204   0.02119   1.93639
    A2        1.95372   0.03288   0.00000   0.04622   0.04541   1.99913
    A3        1.89581  -0.00042   0.00000   0.00720   0.00579   1.90160
    A4        1.95694  -0.02819   0.00000  -0.02623  -0.03226   1.92467
    A5        1.93378   0.19163   0.00000   0.25613   0.25098   2.18476
    A6        1.85360  -0.02723   0.00000  -0.01572  -0.02395   1.82966
    D1       -3.00258  -0.02279   0.00000  -0.04070  -0.04280  -3.04539
    D2       -0.93496   0.05256   0.00000   0.09355   0.09670  -0.83826
    D3        1.17437  -0.05330   0.00000  -0.09512  -0.09827   1.07610
    D4       -3.04119   0.02205   0.00000   0.03913   0.04123  -2.99996
         Item               Value     Threshold  Converged?
 Maximum Force            1.790052     0.000450     NO 
 RMS     Force            0.465621     0.000300     NO 
 Maximum Displacement     0.346409     0.001800     NO 
 RMS     Displacement     0.125231     0.001200     NO 
 Predicted change in Energy=-2.006918D-01
 Lowest energy point so far.  Saving SCF results.
 GradGradGradGradGradGradGradGradGradGradGradGradGradGradGradGradGradGrad

 Leave Link  103 at Wed Jun 12 23:25:03 2024, MaxMem=  1073741824 cpu:         0.9
 (Enter /apps/z_install_tree/linux-rocky8-ivybridge/gcc-12.2.0/gaussian-09-D.01-wczn3gur5lpur3omlkzwa2l5ecyxp5ef/g09/l202.exe)
                          Input orientation:                          
 ---------------------------------------------------------------------
 Center     Atomic      Atomic             Coordinates (Angstroms)
 Number     Number       Type             X           Y           Z
 ---------------------------------------------------------------------
      1          6           0       49.564711   35.913027   32.554341
      2          6           0       50.908916   36.362690   31.961013
      3         17           0       49.553632   36.107118   34.331864
      4         17           0       49.099812   34.237781   32.151246
      5          9           0       50.846617   36.313402   30.204551
      6         17           0       51.452312   37.360982   32.211986
 ---------------------------------------------------------------------
                    Distance matrix (angstroms):
                    1          2          3          4          5
     1  C    0.000000
     2  C    1.536594   0.000000
     3  Cl   1.788123   2.742817   0.000000
     4  Cl   1.784675   2.797192   2.907829   0.000000
     5  F    2.706491   1.758257   4.330020   3.339034   0.000000
     6  Cl   2.403501   1.163982   3.109830   3.910541   2.343946
                    6
     6  Cl   0.000000
 Symmetry turned off by external request.
 Stoichiometry    C2Cl3F
 Framework group  C1[X(C2Cl3F)]
 Deg. of freedom    12
 Full point group                 C1      NOp   1
 Rotational constants (GHZ):      2.3248905      1.5649668      0.9522841
 Leave Link  202 at Wed Jun 12 23:25:03 2024, MaxMem=  1073741824 cpu:         0.0
 (Enter /apps/z_install_tree/linux-rocky8-ivybridge/gcc-12.2.0/gaussian-09-D.01-wczn3gur5lpur3omlkzwa2l5ecyxp5ef/g09/l301.exe)
 Basis read from rwf:  (5D, 7F)
 No pseudopotential information found on rwf file.
   186 basis functions,   303 primitive gaussians,   198 cartesian basis functions
    36 alpha electrons       36 beta electrons
       nuclear repulsion energy       425.8089096488 Hartrees.
 IExCor=  402 DFT=T Ex+Corr=B3LYP ExCW=0 ScaHFX=  0.200000
 ScaDFX=  0.800000  0.720000  1.000000  0.810000 ScalE2=  1.000000  1.000000
 IRadAn=      5 IRanWt=     -1 IRanGd=            0 ICorTp=0 IEmpDi=131
 NAtoms=    6 NActive=    6 NUniq=    6 SFac= 1.00D+00 NAtFMM=   60 NAOKFM=F Big=F
 Integral buffers will be    131072 words long.
 Raffenetti 2 integral format.
 Two-electron integral symmetry is turned off.
 R6Disp:  Grimme-D3 Dispersion energy=       -0.0039209628 Hartrees.
 Nuclear repulsion after empirical dispersion term =      425.8049886860 Hartrees.
 No density basis found on file   724.
 Leave Link  301 at Wed Jun 12 23:25:03 2024, MaxMem=  1073741824 cpu:         0.6
 (Enter /apps/z_install_tree/linux-rocky8-ivybridge/gcc-12.2.0/gaussian-09-D.01-wczn3gur5lpur3omlkzwa2l5ecyxp5ef/g09/l302.exe)
 NPDir=0 NMtPBC=     1 NCelOv=     1 NCel=       1 NClECP=     1 NCelD=      1
         NCelK=      1 NCelE2=     1 NClLst=     1 CellRange=     0.0.
 One-electron integrals computed using PRISM.
 NBasis=   186 RedAO= T EigKep=  4.67D-05  NBF=   186
 NBsUse=   186 1.00D-06 EigRej= -1.00D+00 NBFU=   186
 Precomputing XC quadrature grid using
 IXCGrd= 4 IRadAn=           5 IRanWt=          -1 IRanGd=           0 AccXCQ= 0.00D+00.
 Generated NRdTot=       0 NPtTot=           0 NUsed=           0 NTot=          32
 NSgBfM=   197   197   197   197   197 MxSgAt=     6 MxSgA2=     6.
 Leave Link  302 at Wed Jun 12 23:25:03 2024, MaxMem=  1073741824 cpu:         2.0
 (Enter /apps/z_install_tree/linux-rocky8-ivybridge/gcc-12.2.0/gaussian-09-D.01-wczn3gur5lpur3omlkzwa2l5ecyxp5ef/g09/l303.exe)
 DipDrv:  MaxL=1.
 Leave Link  303 at Wed Jun 12 23:25:03 2024, MaxMem=  1073741824 cpu:         0.3
 (Enter /apps/z_install_tree/linux-rocky8-ivybridge/gcc-12.2.0/gaussian-09-D.01-wczn3gur5lpur3omlkzwa2l5ecyxp5ef/g09/l401.exe)
 Initial guess from the checkpoint file:  "tetrachloroethene.chk"
 B after Tr=     0.033770    0.491462   -0.568930
         Rot=    0.999991    0.000419    0.003220    0.002878 Ang=   0.50 deg.
 Guess basis will be translated and rotated to current coordinates.
 JPrj=2 DoOrth=T DoCkMO=T.
 Generating alternative initial guess.
 ExpMin= 4.38D-02 ExpMax= 1.06D+05 ExpMxC= 3.62D+03 IAcc=2 IRadAn=         4 AccDes= 0.00D+00
 Harris functional with IExCor=  402 and IRadAn=       4 diagonalized for initial guess.
 HarFok:  IExCor=  402 AccDes= 0.00D+00 IRadAn=         4 IDoV= 1 UseB2=F ITyADJ=14
 ICtDFT=  3500011 ScaDFX=  1.000000  1.000000  1.000000  1.000000
 FoFCou: FMM=F IPFlag=           0 FMFlag=      100000 FMFlg1=           0
         NFxFlg=           0 DoJE=T BraDBF=F KetDBF=T FulRan=T
         wScrn=  0.000000 ICntrl=     500 IOpCl=  0 I1Cent=   200000004 NGrid=           0
         NMat0=    1 NMatS0=      1 NMatT0=    0 NMatD0=    1 NMtDS0=    0 NMtDT0=    0
 Symmetry not used in FoFCou.
 Harris En= -1556.18116162903    
 Leave Link  401 at Wed Jun 12 23:25:03 2024, MaxMem=  1073741824 cpu:         3.1
 (Enter /apps/z_install_tree/linux-rocky8-ivybridge/gcc-12.2.0/gaussian-09-D.01-wczn3gur5lpur3omlkzwa2l5ecyxp5ef/g09/l502.exe)
 Closed shell SCF:
 Using DIIS extrapolation, IDIIS=  1040.
 Two-electron integral symmetry not used.
 Keep R1 ints in memory in canonical form, NReq=155306330.
 IVT=      133994 IEndB=      133994 NGot=  1073741824 MDV=   922375695
 LenX=   922375695 LenY=   922336050
 Requested convergence on RMS density matrix=1.00D-08 within  96 cycles.
 Requested convergence on MAX density matrix=1.00D-06.
 Requested convergence on             energy=1.00D-06.
 No special actions if energy rises.
 FoFCou: FMM=F IPFlag=           0 FMFlag=           0 FMFlg1=           0
         NFxFlg=           0 DoJE=F BraDBF=F KetDBF=F FulRan=T
         wScrn=  0.000000 ICntrl=     600 IOpCl=  0 I1Cent=           0 NGrid=           0
         NMat0=    1 NMatS0=  17391 NMatT0=    0 NMatD0=    1 NMtDS0=    0 NMtDT0=    0
 Symmetry not used in FoFCou.

 Cycle   1  Pass 1  IDiag  1:
 E= -1556.22908944597    
 DIIS: error= 1.65D-02 at cycle   1 NSaved=   1.
 NSaved= 1 IEnMin= 1 EnMin= -1556.22908944597     IErMin= 1 ErrMin= 1.65D-02
 ErrMax= 1.65D-02  0.00D+00 EMaxC= 1.00D-01 BMatC= 5.38D-02 BMatP= 5.38D-02
 IDIUse=3 WtCom= 8.35D-01 WtEn= 1.65D-01
 Coeff-Com:  0.100D+01
 Coeff-En:   0.100D+01
 Coeff:      0.100D+01
 Recover alternate guess density for next cycle.
 RMSDP=6.20D-03 MaxDP=2.57D-01              OVMax= 0.00D+00

 Cycle   2  Pass 1  IDiag  1:
 E= -1556.01244135435     Delta-E=        0.216648091623 Rises=F Damp=F
 Switch densities from cycles 1 and 2 for lowest energy.
 DIIS: error= 2.95D-02 at cycle   2 NSaved=   2.
 NSaved= 2 IEnMin= 1 EnMin= -1556.22908944597     IErMin= 1 ErrMin= 1.65D-02
 ErrMax= 2.95D-02  0.00D+00 EMaxC= 1.00D+00 BMatC= 3.47D-01 BMatP= 5.38D-02
 IDIUse=1 WtCom= 1.00D+00 WtEn= 0.00D+00
 Coeff-Com:  0.900D+00 0.100D+00
 Coeff:      0.900D+00 0.100D+00
 Gap=     0.102 Goal=   None    Shift=    0.000
 RMSDP=4.34D-03 MaxDP=1.96D-01 DE= 2.17D-01 OVMax= 1.93D-01

 Cycle   3  Pass 1  IDiag  1:
 E= -1556.25648555235     Delta-E=       -0.244044198003 Rises=F Damp=F
 DIIS: error= 8.77D-03 at cycle   3 NSaved=   3.
 NSaved= 3 IEnMin= 3 EnMin= -1556.25648555235     IErMin= 3 ErrMin= 8.77D-03
 ErrMax= 8.77D-03  0.00D+00 EMaxC= 1.00D+00 BMatC= 2.15D-02 BMatP= 5.38D-02
 IDIUse=1 WtCom= 1.00D+00 WtEn= 0.00D+00
 Coeff-Com:  0.909D-01 0.158D+00 0.751D+00
 Coeff:      0.909D-01 0.158D+00 0.751D+00
 Gap=     0.114 Goal=   None    Shift=    0.000
 RMSDP=2.81D-03 MaxDP=1.97D-01 DE=-2.44D-01 OVMax= 6.54D-02

 Cycle   4  Pass 1  IDiag  1:
 E= -1556.26952328734     Delta-E=       -0.013037734990 Rises=F Damp=F
 DIIS: error= 4.63D-03 at cycle   4 NSaved=   4.
 NSaved= 4 IEnMin= 4 EnMin= -1556.26952328734     IErMin= 4 ErrMin= 4.63D-03
 ErrMax= 4.63D-03  0.00D+00 EMaxC= 1.00D+00 BMatC= 6.70D-03 BMatP= 2.15D-02
 IDIUse=1 WtCom= 1.00D+00 WtEn= 0.00D+00
 Coeff-Com: -0.491D-02 0.710D-01 0.440D+00 0.494D+00
 Coeff:     -0.491D-02 0.710D-01 0.440D+00 0.494D+00
 Gap=     0.112 Goal=   None    Shift=    0.000
 RMSDP=1.08D-03 MaxDP=3.58D-02 DE=-1.30D-02 OVMax= 4.85D-02

 Cycle   5  Pass 1  IDiag  1:
 E= -1556.27378703826     Delta-E=       -0.004263750919 Rises=F Damp=F
 DIIS: error= 3.68D-03 at cycle   5 NSaved=   5.
 NSaved= 5 IEnMin= 5 EnMin= -1556.27378703826     IErMin= 5 ErrMin= 3.68D-03
 ErrMax= 3.68D-03  0.00D+00 EMaxC= 1.00D+00 BMatC= 2.66D-03 BMatP= 6.70D-03
 IDIUse=1 WtCom= 1.00D+00 WtEn= 0.00D+00
 Coeff-Com: -0.802D-02 0.104D-01 0.181D+00 0.377D+00 0.439D+00
 Coeff:     -0.802D-02 0.104D-01 0.181D+00 0.377D+00 0.439D+00
 Gap=     0.115 Goal=   None    Shift=    0.000
 RMSDP=4.40D-04 MaxDP=1.11D-02 DE=-4.26D-03 OVMax= 4.04D-02

 Cycle   6  Pass 1  IDiag  1:
 E= -1556.27576198052     Delta-E=       -0.001974942259 Rises=F Damp=F
 DIIS: error= 1.24D-03 at cycle   6 NSaved=   6.
 NSaved= 6 IEnMin= 6 EnMin= -1556.27576198052     IErMin= 6 ErrMin= 1.24D-03
 ErrMax= 1.24D-03  0.00D+00 EMaxC= 1.00D+00 BMatC= 3.66D-04 BMatP= 2.66D-03
 IDIUse=1 WtCom= 1.00D+00 WtEn= 0.00D+00
 Coeff-Com: -0.339D-02 0.220D-02 0.107D+00 0.249D+00 0.334D+00 0.312D+00
 Coeff:     -0.339D-02 0.220D-02 0.107D+00 0.249D+00 0.334D+00 0.312D+00
 Gap=     0.114 Goal=   None    Shift=    0.000
 RMSDP=1.78D-04 MaxDP=3.89D-03 DE=-1.97D-03 OVMax= 1.74D-02

 Cycle   7  Pass 1  IDiag  1:
 E= -1556.27620672682     Delta-E=       -0.000444746302 Rises=F Damp=F
 DIIS: error= 1.84D-04 at cycle   7 NSaved=   7.
 NSaved= 7 IEnMin= 7 EnMin= -1556.27620672682     IErMin= 7 ErrMin= 1.84D-04
 ErrMax= 1.84D-04  0.00D+00 EMaxC= 1.00D+00 BMatC= 1.67D-05 BMatP= 3.66D-04
 IDIUse=1 WtCom= 1.00D+00 WtEn= 0.00D+00
 Coeff-Com: -0.203D-02-0.204D-03 0.275D-01 0.845D-01 0.130D+00 0.171D+00
 Coeff-Com:  0.589D+00
 Coeff:     -0.203D-02-0.204D-03 0.275D-01 0.845D-01 0.130D+00 0.171D+00
 Coeff:      0.589D+00
 Gap=     0.114 Goal=   None    Shift=    0.000
 RMSDP=6.06D-05 MaxDP=4.51D-03 DE=-4.45D-04 OVMax= 1.02D-03

 Cycle   8  Pass 1  IDiag  1:
 E= -1556.27621754835     Delta-E=       -0.000010821534 Rises=F Damp=F
 DIIS: error= 6.17D-05 at cycle   8 NSaved=   8.
 NSaved= 8 IEnMin= 8 EnMin= -1556.27621754835     IErMin= 8 ErrMin= 6.17D-05
 ErrMax= 6.17D-05  0.00D+00 EMaxC= 1.00D+00 BMatC= 1.57D-06 BMatP= 1.67D-05
 IDIUse=1 WtCom= 1.00D+00 WtEn= 0.00D+00
 Coeff-Com: -0.613D-03-0.481D-03 0.446D-02 0.233D-01 0.413D-01 0.600D-01
 Coeff-Com:  0.310D+00 0.563D+00
 Coeff:     -0.613D-03-0.481D-03 0.446D-02 0.233D-01 0.413D-01 0.600D-01
 Coeff:      0.310D+00 0.563D+00
 Gap=     0.114 Goal=   None    Shift=    0.000
 RMSDP=1.62D-05 MaxDP=5.42D-04 DE=-1.08D-05 OVMax= 5.28D-04

 Cycle   9  Pass 1  IDiag  1:
 E= -1556.27621878508     Delta-E=       -0.000001236724 Rises=F Damp=F
 DIIS: error= 1.62D-05 at cycle   9 NSaved=   9.
 NSaved= 9 IEnMin= 9 EnMin= -1556.27621878508     IErMin= 9 ErrMin= 1.62D-05
 ErrMax= 1.62D-05  0.00D+00 EMaxC= 1.00D+00 BMatC= 1.21D-07 BMatP= 1.57D-06
 IDIUse=1 WtCom= 1.00D+00 WtEn= 0.00D+00
 Coeff-Com: -0.809D-04-0.579D-04-0.138D-02 0.169D-03 0.321D-02 0.120D-02
 Coeff-Com:  0.692D-01 0.227D+00 0.701D+00
 Coeff:     -0.809D-04-0.579D-04-0.138D-02 0.169D-03 0.321D-02 0.120D-02
 Coeff:      0.692D-01 0.227D+00 0.701D+00
 Gap=     0.114 Goal=   None    Shift=    0.000
 RMSDP=4.29D-06 MaxDP=1.32D-04 DE=-1.24D-06 OVMax= 2.36D-04

 Cycle  10  Pass 1  IDiag  1:
 E= -1556.27621891093     Delta-E=       -0.000000125857 Rises=F Damp=F
 DIIS: error= 3.09D-06 at cycle  10 NSaved=  10.
 NSaved=10 IEnMin=10 EnMin= -1556.27621891093     IErMin=10 ErrMin= 3.09D-06
 ErrMax= 3.09D-06  0.00D+00 EMaxC= 1.00D+00 BMatC= 6.75D-09 BMatP= 1.21D-07
 IDIUse=1 WtCom= 1.00D+00 WtEn= 0.00D+00
 Coeff-Com:  0.130D-04-0.534D-05-0.691D-03-0.110D-02-0.839D-03-0.333D-02
 Coeff-Com:  0.261D-02 0.376D-01 0.273D+00 0.693D+00
 Coeff:      0.130D-04-0.534D-05-0.691D-03-0.110D-02-0.839D-03-0.333D-02
 Coeff:      0.261D-02 0.376D-01 0.273D+00 0.693D+00
 Gap=     0.114 Goal=   None    Shift=    0.000
 RMSDP=1.68D-06 MaxDP=1.06D-04 DE=-1.26D-07 OVMax= 6.55D-05

 Cycle  11  Pass 1  IDiag  1:
 E= -1556.27621891839     Delta-E=       -0.000000007453 Rises=F Damp=F
 DIIS: error= 1.15D-06 at cycle  11 NSaved=  11.
 NSaved=11 IEnMin=11 EnMin= -1556.27621891839     IErMin=11 ErrMin= 1.15D-06
 ErrMax= 1.15D-06  0.00D+00 EMaxC= 1.00D+00 BMatC= 5.97D-10 BMatP= 6.75D-09
 IDIUse=1 WtCom= 1.00D+00 WtEn= 0.00D+00
 Coeff-Com:  0.837D-05 0.368D-05-0.124D-03-0.433D-03-0.482D-03-0.175D-02
 Coeff-Com: -0.470D-02-0.571D-02 0.351D-01 0.215D+00 0.763D+00
 Coeff:      0.837D-05 0.368D-05-0.124D-03-0.433D-03-0.482D-03-0.175D-02
 Coeff:     -0.470D-02-0.571D-02 0.351D-01 0.215D+00 0.763D+00
 Gap=     0.114 Goal=   None    Shift=    0.000
 RMSDP=3.60D-07 MaxDP=1.77D-05 DE=-7.45D-09 OVMax= 1.60D-05

 Cycle  12  Pass 1  IDiag  1:
 E= -1556.27621891908     Delta-E=       -0.000000000696 Rises=F Damp=F
 DIIS: error= 4.84D-07 at cycle  12 NSaved=  12.
 NSaved=12 IEnMin=12 EnMin= -1556.27621891908     IErMin=12 ErrMin= 4.84D-07
 ErrMax= 4.84D-07  0.00D+00 EMaxC= 1.00D+00 BMatC= 7.92D-11 BMatP= 5.97D-10
 IDIUse=1 WtCom= 1.00D+00 WtEn= 0.00D+00
 Coeff-Com:  0.974D-06 0.353D-05 0.170D-04-0.830D-04-0.102D-03-0.591D-03
 Coeff-Com: -0.220D-02-0.599D-02-0.122D-01 0.284D-01 0.286D+00 0.706D+00
 Coeff:      0.974D-06 0.353D-05 0.170D-04-0.830D-04-0.102D-03-0.591D-03
 Coeff:     -0.220D-02-0.599D-02-0.122D-01 0.284D-01 0.286D+00 0.706D+00
 Gap=     0.114 Goal=   None    Shift=    0.000
 RMSDP=1.30D-07 MaxDP=5.40D-06 DE=-6.96D-10 OVMax= 6.30D-06

 Cycle  13  Pass 1  IDiag  1:
 E= -1556.27621891918     Delta-E=       -0.000000000098 Rises=F Damp=F
 DIIS: error= 1.14D-07 at cycle  13 NSaved=  13.
 NSaved=13 IEnMin=13 EnMin= -1556.27621891918     IErMin=13 ErrMin= 1.14D-07
 ErrMax= 1.14D-07  0.00D+00 EMaxC= 1.00D+00 BMatC= 5.66D-12 BMatP= 7.92D-11
 IDIUse=1 WtCom= 1.00D+00 WtEn= 0.00D+00
 Coeff-Com: -0.292D-06 0.572D-06 0.195D-04 0.124D-04 0.166D-04-0.833D-04
 Coeff-Com: -0.300D-03-0.157D-02-0.798D-02-0.777D-02 0.239D-01 0.235D+00
 Coeff-Com:  0.759D+00
 Coeff:     -0.292D-06 0.572D-06 0.195D-04 0.124D-04 0.166D-04-0.833D-04
 Coeff:     -0.300D-03-0.157D-02-0.798D-02-0.777D-02 0.239D-01 0.235D+00
 Coeff:      0.759D+00
 Gap=     0.114 Goal=   None    Shift=    0.000
 RMSDP=3.93D-08 MaxDP=1.46D-06 DE=-9.75D-11 OVMax= 2.05D-06

 Cycle  14  Pass 1  IDiag  1:
 E= -1556.27621891916     Delta-E=        0.000000000018 Rises=F Damp=F
 DIIS: error= 3.30D-08 at cycle  14 NSaved=  14.
 NSaved=14 IEnMin=13 EnMin= -1556.27621891918     IErMin=14 ErrMin= 3.30D-08
 ErrMax= 3.30D-08  0.00D+00 EMaxC= 1.00D+00 BMatC= 6.07D-13 BMatP= 5.66D-12
 IDIUse=1 WtCom= 1.00D+00 WtEn= 0.00D+00
 Coeff-Com: -0.280D-06-0.108D-07 0.834D-05 0.136D-04 0.185D-04 0.871D-05
 Coeff-Com:  0.495D-04-0.233D-03-0.266D-02-0.544D-02-0.144D-01 0.411D-01
 Coeff-Com:  0.361D+00 0.620D+00
 Coeff:     -0.280D-06-0.108D-07 0.834D-05 0.136D-04 0.185D-04 0.871D-05
 Coeff:      0.495D-04-0.233D-03-0.266D-02-0.544D-02-0.144D-01 0.411D-01
 Coeff:      0.361D+00 0.620D+00
 Gap=     0.114 Goal=   None    Shift=    0.000
 RMSDP=1.42D-08 MaxDP=4.98D-07 DE= 1.82D-11 OVMax= 5.32D-07

 Cycle  15  Pass 1  IDiag  1:
 E= -1556.27621891918     Delta-E=       -0.000000000021 Rises=F Damp=F
 DIIS: error= 6.42D-09 at cycle  15 NSaved=  15.
 NSaved=15 IEnMin=15 EnMin= -1556.27621891918     IErMin=15 ErrMin= 6.42D-09
 ErrMax= 6.42D-09  0.00D+00 EMaxC= 1.00D+00 BMatC= 2.60D-14 BMatP= 6.07D-13
 IDIUse=1 WtCom= 1.00D+00 WtEn= 0.00D+00
 Coeff-Com: -0.678D-07-0.583D-07 0.108D-05 0.328D-05 0.472D-05 0.118D-04
 Coeff-Com:  0.483D-04 0.762D-04-0.227D-04-0.989D-03-0.709D-02-0.113D-01
 Coeff-Com:  0.398D-01 0.198D+00 0.782D+00
 Coeff:     -0.678D-07-0.583D-07 0.108D-05 0.328D-05 0.472D-05 0.118D-04
 Coeff:      0.483D-04 0.762D-04-0.227D-04-0.989D-03-0.709D-02-0.113D-01
 Coeff:      0.398D-01 0.198D+00 0.782D+00
 Gap=     0.114 Goal=   None    Shift=    0.000
 RMSDP=3.70D-09 MaxDP=2.32D-07 DE=-2.14D-11 OVMax= 1.63D-07

 SCF Done:  E(RB3LYP) =  -1556.27621892     A.U. after   15 cycles
            NFock= 15  Conv=0.37D-08     -V/T= 2.0009
 KE= 1.554875689107D+03 PE=-4.548937304371D+03 EE= 1.011980407658D+03
 Leave Link  502 at Wed Jun 12 23:25:08 2024, MaxMem=  1073741824 cpu:        52.0
 (Enter /apps/z_install_tree/linux-rocky8-ivybridge/gcc-12.2.0/gaussian-09-D.01-wczn3gur5lpur3omlkzwa2l5ecyxp5ef/g09/l508.exe)
 QCSCF skips out because SCF is already converged.
 Leave Link  508 at Wed Jun 12 23:25:08 2024, MaxMem=  1073741824 cpu:         0.0
 (Enter /apps/z_install_tree/linux-rocky8-ivybridge/gcc-12.2.0/gaussian-09-D.01-wczn3gur5lpur3omlkzwa2l5ecyxp5ef/g09/l701.exe)
 Compute integral first derivatives.
 ... and contract with generalized density number  0.
 R6Disp: Adding Grimme-D3 dispersion energy 1st derivatives to the gradient.
 Leave Link  701 at Wed Jun 12 23:25:08 2024, MaxMem=  1073741824 cpu:         1.4
 (Enter /apps/z_install_tree/linux-rocky8-ivybridge/gcc-12.2.0/gaussian-09-D.01-wczn3gur5lpur3omlkzwa2l5ecyxp5ef/g09/l702.exe)
 L702 exits ... SP integral derivatives will be done elsewhere.
 Leave Link  702 at Wed Jun 12 23:25:08 2024, MaxMem=  1073741824 cpu:         0.2
 (Enter /apps/z_install_tree/linux-rocky8-ivybridge/gcc-12.2.0/gaussian-09-D.01-wczn3gur5lpur3omlkzwa2l5ecyxp5ef/g09/l703.exe)
 Compute integral first derivatives, UseDBF=F ICtDFT=           0.
 Integral derivatives from FoFJK, PRISM(SPDF).
 Calling FoFJK, ICntrl=      2127 FMM=F ISym2X=0 I1Cent= 0 IOpClX= 0 NMat=1 NMatS=1 NMatT=0.
 FoFJK:  IHMeth= 1 ICntrl=    2127 DoSepK=F KAlg= 0 I1Cent=   0 FoldK=F
 IRaf=         0 NMat=   1 IRICut=       1 DoRegI=T DoRafI=F ISym2E= 0.
 FoFCou: FMM=F IPFlag=           0 FMFlag=      100000 FMFlg1=         800
         NFxFlg=           0 DoJE=F BraDBF=F KetDBF=F FulRan=T
         wScrn=  0.000000 ICntrl=    2127 IOpCl=  0 I1Cent=           0 NGrid=           0
         NMat0=    1 NMatS0=      1 NMatT0=    0 NMatD0=    1 NMtDS0=    0 NMtDT0=    0
 Symmetry not used in FoFCou.
 Leave Link  703 at Wed Jun 12 23:25:09 2024, MaxMem=  1073741824 cpu:        12.8
 (Enter /apps/z_install_tree/linux-rocky8-ivybridge/gcc-12.2.0/gaussian-09-D.01-wczn3gur5lpur3omlkzwa2l5ecyxp5ef/g09/l716.exe)
 Dipole        = 8.80515511D-01 9.87246437D-01 1.04243131D+00
 -------------------------------------------------------------------
 Center     Atomic                   Forces (Hartrees/Bohr)
 Number     Number              X              Y              Z
 -------------------------------------------------------------------
      1        6           0.059494332   -0.048703876   -0.018952574
      2        6          -0.649047917   -0.982013472   -0.273104607
      3       17          -0.003084794    0.007670110   -0.004901286
      4       17          -0.006470460    0.014266046   -0.005030391
      5        9          -0.001905444   -0.017235489    0.040247938
      6       17           0.601014283    1.026016681    0.261740921
 -------------------------------------------------------------------
 Cartesian Forces:  Max     1.026016681 RMS     0.404913639
 Leave Link  716 at Wed Jun 12 23:25:09 2024, MaxMem=  1073741824 cpu:         0.3
 (Enter /apps/z_install_tree/linux-rocky8-ivybridge/gcc-12.2.0/gaussian-09-D.01-wczn3gur5lpur3omlkzwa2l5ecyxp5ef/g09/l103.exe)

 GradGradGradGradGradGradGradGradGradGradGradGradGradGradGradGradGradGrad
 Berny optimization.
 Using GEDIIS/GDIIS optimizer.
 FormGI is forming the generalized inverse of G from B-inverse, IUseBI=4.
 Internal  Forces:  Max     1.216980144 RMS     0.315511437
 Search for a local minimum.
 Step number   2 out of a maximum of   25
 All quantities printed in internal units (Hartrees-Bohrs-Radians)
 RMS Force = .31551D+00 SwitMx=.10000D-02 MixMth= 1
 Mixed Optimization -- RFO/linear search
 Update second derivatives using D2CorX and points    1    2
 DE= -2.39D-01 DEPred=-2.01D-01 R= 1.19D+00
 TightC=F SS=  1.41D+00  RLast= 3.32D-01 DXNew= 5.0454D-01 9.9622D-01
 Trust test= 1.19D+00 RLast= 3.32D-01 DXMaxT set to 5.05D-01
 The second derivative matrix:
                          R1        R2        R3        R4        R5
           R1           0.33762
           R2           0.00309   0.27171
           R3           0.00537   0.00043   0.27361
           R4           0.00284   0.00022   0.00034   0.14386
           R5           0.28587   0.02378   0.04959   0.07701   3.82041
           A1           0.00550   0.00045   0.00080   0.00059   0.01228
           A2           0.00796   0.00065   0.00119   0.00101  -0.00691
           A3          -0.00431  -0.00035  -0.00059  -0.00023  -0.04697
           A4          -0.00071  -0.00006  -0.00016  -0.00038   0.04775
           A5           0.07024   0.00569   0.01021   0.00732   0.18913
           A6          -0.01853  -0.00150  -0.00262  -0.00149  -0.12050
           D1          -0.00720  -0.00058  -0.00100  -0.00049  -0.06105
           D2           0.01147   0.00092   0.00160   0.00078   0.09649
           D3          -0.00935  -0.00075  -0.00130  -0.00064  -0.07803
           D4           0.00932   0.00075   0.00130   0.00063   0.07951
                          A1        A2        A3        A4        A5
           A1           0.25070
           A2           0.00093   0.25116
           A3          -0.00067  -0.00101   0.25046
           A4           0.00007   0.00025   0.00017   0.24970
           A5           0.00901   0.01211  -0.00846   0.00070   0.36626
           A6          -0.00261  -0.00372   0.00212   0.00024  -0.03333
           D1          -0.00106  -0.00155   0.00080   0.00018  -0.01348
           D2           0.00168   0.00247  -0.00127  -0.00028   0.02146
           D3          -0.00137  -0.00200   0.00104   0.00022  -0.01746
           D4           0.00137   0.00201  -0.00103  -0.00023   0.01748
                          A6        D1        D2        D3        D4
           A6           0.25894
           D1           0.00350   0.00576
           D2          -0.00558  -0.00215   0.00784
           D3           0.00454   0.00175  -0.00279   0.00669
           D4          -0.00453  -0.00174   0.00278  -0.00227   0.00667
 ITU=  1  0
 Use linear search instead of GDIIS.
 Linear search step of   0.593 exceeds DXMaxT=   0.505 but not scaled.
 Quartic linear search produced a step of  2.00000.
 Iteration  1 RMS(Cart)=  0.13318580 RMS(Int)=  0.08064744
 Iteration  2 RMS(Cart)=  0.09071798 RMS(Int)=  0.03245427
 Iteration  3 RMS(Cart)=  0.03947322 RMS(Int)=  0.02144041
 Iteration  4 RMS(Cart)=  0.00132352 RMS(Int)=  0.02139739
 Iteration  5 RMS(Cart)=  0.00002068 RMS(Int)=  0.02139738
 Iteration  6 RMS(Cart)=  0.00000071 RMS(Int)=  0.02139738
 ITry= 1 IFail=0 DXMaxC= 5.73D-01 DCOld= 1.00D+10 DXMaxT= 5.05D-01 DXLimC= 3.00D+00 Rises=F
 Variable       Old X    -DE/DX   Delta X   Delta X   Delta X     New X
                                 (Linear)    (Quad)   (Total)
    R1        2.90374  -0.04701   0.04561   0.00000   0.04561   2.94935
    R2        3.37906  -0.00402   0.00325   0.00000   0.00325   3.38231
    R3        3.37255  -0.01057  -0.00340   0.00000  -0.00340   3.36915
    R4        3.32263  -0.03966  -0.10892   0.00000  -0.10892   3.21371
    R5        2.19961   1.21698   0.26145   0.00000   0.26145   2.46105
    A1        1.93639   0.00414   0.04237   0.00000   0.03665   1.97303
    A2        1.99913   0.01853   0.09083   0.00000   0.08544   2.08457
    A3        1.90160   0.00689   0.01158   0.00000   0.00355   1.90515
    A4        1.92467  -0.02650  -0.06453   0.00000  -0.11274   1.81194
    A5        2.18476   0.06723   0.50197   0.00000   0.46126   2.64603
    A6        1.82966   0.00497  -0.04789   0.00000  -0.09824   1.73141
    D1       -3.04539  -0.01041  -0.08560   0.00000  -0.09006  -3.13545
    D2       -0.83826   0.03282   0.19340   0.00000   0.20303  -0.63522
    D3        1.07610  -0.03722  -0.19654   0.00000  -0.20618   0.86992
    D4       -2.99996   0.00602   0.08246   0.00000   0.08692  -2.91304
         Item               Value     Threshold  Converged?
 Maximum Force            1.216980     0.000450     NO 
 RMS     Force            0.315511     0.000300     NO 
 Maximum Displacement     0.573032     0.001800     NO 
 RMS     Displacement     0.239513     0.001200     NO 
 Predicted change in Energy=-1.490677D-01
 Lowest energy point so far.  Saving SCF results.
 GradGradGradGradGradGradGradGradGradGradGradGradGradGradGradGradGradGrad

 Leave Link  103 at Wed Jun 12 23:25:09 2024, MaxMem=  1073741824 cpu:         0.6
 (Enter /apps/z_install_tree/linux-rocky8-ivybridge/gcc-12.2.0/gaussian-09-D.01-wczn3gur5lpur3omlkzwa2l5ecyxp5ef/g09/l202.exe)
                          Input orientation:                          
 ---------------------------------------------------------------------
 Center     Atomic      Atomic             Coordinates (Angstroms)
 Number     Number       Type             X           Y           Z
 ---------------------------------------------------------------------
      1          6           0       49.549117   35.862538   32.580476
      2          6           0       50.848434   36.517656   32.016146
      3         17           0       49.402293   36.015404   34.357722
      4         17           0       49.126676   34.198554   32.099486
      5          9           0       50.743932   36.248745   30.340176
      6         17           0       51.755547   37.452104   32.020994
 ---------------------------------------------------------------------
                    Distance matrix (angstroms):
                    1          2          3          4          5
     1  C    0.000000
     2  C    1.560728   0.000000
     3  Cl   1.789840   2.797599   0.000000
     4  Cl   1.782877   2.889573   2.911450   0.000000
     5  F    2.568206   1.700620   4.242065   3.148646   0.000000
     6  Cl   2.776342   1.302333   3.614169   4.183625   2.301431
                    6
     6  Cl   0.000000
 Symmetry turned off by external request.
 Stoichiometry    C2Cl3F
 Framework group  C1[X(C2Cl3F)]
 Deg. of freedom    12
 Full point group                 C1      NOp   1
 Rotational constants (GHZ):      2.3841108      1.3521859      0.8812326
 Leave Link  202 at Wed Jun 12 23:25:09 2024, MaxMem=  1073741824 cpu:         0.0
 (Enter /apps/z_install_tree/linux-rocky8-ivybridge/gcc-12.2.0/gaussian-09-D.01-wczn3gur5lpur3omlkzwa2l5ecyxp5ef/g09/l301.exe)
 Basis read from rwf:  (5D, 7F)
 No pseudopotential information found on rwf file.
   186 basis functions,   303 primitive gaussians,   198 cartesian basis functions
    36 alpha electrons       36 beta electrons
       nuclear repulsion energy       410.8051297041 Hartrees.
 IExCor=  402 DFT=T Ex+Corr=B3LYP ExCW=0 ScaHFX=  0.200000
 ScaDFX=  0.800000  0.720000  1.000000  0.810000 ScalE2=  1.000000  1.000000
 IRadAn=      5 IRanWt=     -1 IRanGd=            0 ICorTp=0 IEmpDi=131
 NAtoms=    6 NActive=    6 NUniq=    6 SFac= 1.00D+00 NAtFMM=   60 NAOKFM=F Big=F
 Integral buffers will be    131072 words long.
 Raffenetti 2 integral format.
 Two-electron integral symmetry is turned off.
 R6Disp:  Grimme-D3 Dispersion energy=       -0.0044448285 Hartrees.
 Nuclear repulsion after empirical dispersion term =      410.8006848756 Hartrees.
 No density basis found on file   724.
 Leave Link  301 at Wed Jun 12 23:25:09 2024, MaxMem=  1073741824 cpu:         0.7
 (Enter /apps/z_install_tree/linux-rocky8-ivybridge/gcc-12.2.0/gaussian-09-D.01-wczn3gur5lpur3omlkzwa2l5ecyxp5ef/g09/l302.exe)
 NPDir=0 NMtPBC=     1 NCelOv=     1 NCel=       1 NClECP=     1 NCelD=      1
         NCelK=      1 NCelE2=     1 NClLst=     1 CellRange=     0.0.
 One-electron integrals computed using PRISM.
 NBasis=   186 RedAO= T EigKep=  5.64D-05  NBF=   186
 NBsUse=   186 1.00D-06 EigRej= -1.00D+00 NBFU=   186
 Precomputing XC quadrature grid using
 IXCGrd= 4 IRadAn=           5 IRanWt=          -1 IRanGd=           0 AccXCQ= 0.00D+00.
 Generated NRdTot=       0 NPtTot=           0 NUsed=           0 NTot=          32
 NSgBfM=   196   196   196   196   196 MxSgAt=     6 MxSgA2=     6.
 Leave Link  302 at Wed Jun 12 23:25:09 2024, MaxMem=  1073741824 cpu:         2.0
 (Enter /apps/z_install_tree/linux-rocky8-ivybridge/gcc-12.2.0/gaussian-09-D.01-wczn3gur5lpur3omlkzwa2l5ecyxp5ef/g09/l303.exe)
 DipDrv:  MaxL=1.
 Leave Link  303 at Wed Jun 12 23:25:10 2024, MaxMem=  1073741824 cpu:         0.3
 (Enter /apps/z_install_tree/linux-rocky8-ivybridge/gcc-12.2.0/gaussian-09-D.01-wczn3gur5lpur3omlkzwa2l5ecyxp5ef/g09/l401.exe)
 Initial guess from the checkpoint file:  "tetrachloroethene.chk"
 B after Tr=     0.027191    0.646926   -0.754913
         Rot=    0.999982    0.000885    0.004339    0.004075 Ang=   0.69 deg.
 Guess basis will be translated and rotated to current coordinates.
 JPrj=2 DoOrth=T DoCkMO=T.
 Generating alternative initial guess.
 ExpMin= 4.38D-02 ExpMax= 1.06D+05 ExpMxC= 3.62D+03 IAcc=2 IRadAn=         4 AccDes= 0.00D+00
 Harris functional with IExCor=  402 and IRadAn=       4 diagonalized for initial guess.
 HarFok:  IExCor=  402 AccDes= 0.00D+00 IRadAn=         4 IDoV= 1 UseB2=F ITyADJ=14
 ICtDFT=  3500011 ScaDFX=  1.000000  1.000000  1.000000  1.000000
 FoFCou: FMM=F IPFlag=           0 FMFlag=      100000 FMFlg1=           0
         NFxFlg=           0 DoJE=T BraDBF=F KetDBF=T FulRan=T
         wScrn=  0.000000 ICntrl=     500 IOpCl=  0 I1Cent=   200000004 NGrid=           0
         NMat0=    1 NMatS0=      1 NMatT0=    0 NMatD0=    1 NMtDS0=    0 NMtDT0=    0
 Symmetry not used in FoFCou.
 Harris En= -1556.36173403234    
 Leave Link  401 at Wed Jun 12 23:25:10 2024, MaxMem=  1073741824 cpu:         3.1
 (Enter /apps/z_install_tree/linux-rocky8-ivybridge/gcc-12.2.0/gaussian-09-D.01-wczn3gur5lpur3omlkzwa2l5ecyxp5ef/g09/l502.exe)
 Closed shell SCF:
 Using DIIS extrapolation, IDIIS=  1040.
 Two-electron integral symmetry not used.
 Keep R1 ints in memory in canonical form, NReq=155306330.
 IVT=      133994 IEndB=      133994 NGot=  1073741824 MDV=   922375695
 LenX=   922375695 LenY=   922336050
 Requested convergence on RMS density matrix=1.00D-08 within  96 cycles.
 Requested convergence on MAX density matrix=1.00D-06.
 Requested convergence on             energy=1.00D-06.
 No special actions if energy rises.
 FoFCou: FMM=F IPFlag=           0 FMFlag=           0 FMFlg1=           0
         NFxFlg=           0 DoJE=F BraDBF=F KetDBF=F FulRan=T
         wScrn=  0.000000 ICntrl=     600 IOpCl=  0 I1Cent=           0 NGrid=           0
         NMat0=    1 NMatS0=  17391 NMatT0=    0 NMatD0=    1 NMtDS0=    0 NMtDT0=    0
 Symmetry not used in FoFCou.

 Cycle   1  Pass 1  IDiag  1:
 E= -1556.36252556826    
 DIIS: error= 1.86D-02 at cycle   1 NSaved=   1.
 NSaved= 1 IEnMin= 1 EnMin= -1556.36252556826     IErMin= 1 ErrMin= 1.86D-02
 ErrMax= 1.86D-02  0.00D+00 EMaxC= 1.00D-01 BMatC= 1.46D-01 BMatP= 1.46D-01
 IDIUse=3 WtCom= 8.14D-01 WtEn= 1.86D-01
 Coeff-Com:  0.100D+01
 Coeff-En:   0.100D+01
 Coeff:      0.100D+01
 Recover alternate guess density for next cycle.
 RMSDP=7.46D-03 MaxDP=3.06D-01              OVMax= 0.00D+00

 Cycle   2  Pass 1  IDiag  1:
 E= -1556.33683821684     Delta-E=        0.025687351423 Rises=F Damp=F
 Switch densities from cycles 1 and 2 for lowest energy.
 DIIS: error= 1.93D-02 at cycle   2 NSaved=   2.
 NSaved= 2 IEnMin= 1 EnMin= -1556.36252556826     IErMin= 1 ErrMin= 1.86D-02
 ErrMax= 1.93D-02  0.00D+00 EMaxC= 1.00D+00 BMatC= 2.51D-01 BMatP= 1.46D-01
 IDIUse=1 WtCom= 1.00D+00 WtEn= 0.00D+00
 Coeff-Com:  0.639D+00 0.361D+00
 Coeff:      0.639D+00 0.361D+00
 Gap=     0.116 Goal=   None    Shift=    0.000
 RMSDP=6.20D-03 MaxDP=1.60D-01 DE= 2.57D-02 OVMax= 2.01D-01

 Cycle   3  Pass 1  IDiag  1:
 E= -1556.40742930704     Delta-E=       -0.070591090200 Rises=F Damp=F
 DIIS: error= 1.69D-02 at cycle   3 NSaved=   3.
 NSaved= 3 IEnMin= 3 EnMin= -1556.40742930704     IErMin= 3 ErrMin= 1.69D-02
 ErrMax= 1.69D-02  0.00D+00 EMaxC= 1.00D+00 BMatC= 1.16D-01 BMatP= 1.46D-01
 IDIUse=1 WtCom= 1.00D+00 WtEn= 0.00D+00
 Coeff-Com:  0.939D-01 0.355D+00 0.551D+00
 Coeff:      0.939D-01 0.355D+00 0.551D+00
 Gap=     0.135 Goal=   None    Shift=    0.000
 RMSDP=4.15D-03 MaxDP=2.69D-01 DE=-7.06D-02 OVMax= 1.53D-01

 Cycle   4  Pass 1  IDiag  1:
 E= -1556.49217736426     Delta-E=       -0.084748057219 Rises=F Damp=F
 DIIS: error= 6.89D-03 at cycle   4 NSaved=   4.
 NSaved= 4 IEnMin= 4 EnMin= -1556.49217736426     IErMin= 4 ErrMin= 6.89D-03
 ErrMax= 6.89D-03  0.00D+00 EMaxC= 1.00D+00 BMatC= 1.55D-02 BMatP= 1.16D-01
 IDIUse=1 WtCom= 1.00D+00 WtEn= 0.00D+00
 Coeff-Com:  0.148D-01 0.894D-01 0.293D+00 0.603D+00
 Coeff:      0.148D-01 0.894D-01 0.293D+00 0.603D+00
 Gap=     0.126 Goal=   None    Shift=    0.000
 RMSDP=1.11D-03 MaxDP=2.96D-02 DE=-8.47D-02 OVMax= 1.16D-01

 Cycle   5  Pass 1  IDiag  1:
 E= -1556.49573409370     Delta-E=       -0.003556729445 Rises=F Damp=F
 DIIS: error= 5.96D-03 at cycle   5 NSaved=   5.
 NSaved= 5 IEnMin= 5 EnMin= -1556.49573409370     IErMin= 5 ErrMin= 5.96D-03
 ErrMax= 5.96D-03  0.00D+00 EMaxC= 1.00D+00 BMatC= 1.02D-02 BMatP= 1.55D-02
 IDIUse=1 WtCom= 1.00D+00 WtEn= 0.00D+00
 Coeff-Com: -0.255D-02 0.123D-01 0.143D+00 0.480D+00 0.368D+00
 Coeff:     -0.255D-02 0.123D-01 0.143D+00 0.480D+00 0.368D+00
 Gap=     0.130 Goal=   None    Shift=    0.000
 RMSDP=7.57D-04 MaxDP=2.63D-02 DE=-3.56D-03 OVMax= 8.19D-02

 Cycle   6  Pass 1  IDiag  1:
 E= -1556.50606065764     Delta-E=       -0.010326563935 Rises=F Damp=F
 DIIS: error= 1.17D-03 at cycle   6 NSaved=   6.
 NSaved= 6 IEnMin= 6 EnMin= -1556.50606065764     IErMin= 6 ErrMin= 1.17D-03
 ErrMax= 1.17D-03  0.00D+00 EMaxC= 1.00D+00 BMatC= 5.48D-04 BMatP= 1.02D-02
 IDIUse=1 WtCom= 1.00D+00 WtEn= 0.00D+00
 Coeff-Com: -0.250D-02-0.355D-03 0.545D-01 0.213D+00 0.240D+00 0.495D+00
 Coeff:     -0.250D-02-0.355D-03 0.545D-01 0.213D+00 0.240D+00 0.495D+00
 Gap=     0.130 Goal=   None    Shift=    0.000
 RMSDP=2.66D-04 MaxDP=1.06D-02 DE=-1.03D-02 OVMax= 2.24D-02

 Cycle   7  Pass 1  IDiag  1:
 E= -1556.50670904873     Delta-E=       -0.000648391086 Rises=F Damp=F
 DIIS: error= 1.90D-04 at cycle   7 NSaved=   7.
 NSaved= 7 IEnMin= 7 EnMin= -1556.50670904873     IErMin= 7 ErrMin= 1.90D-04
 ErrMax= 1.90D-04  0.00D+00 EMaxC= 1.00D+00 BMatC= 2.14D-05 BMatP= 5.48D-04
 IDIUse=1 WtCom= 1.00D+00 WtEn= 0.00D+00
 Coeff-Com: -0.972D-03-0.183D-02 0.862D-02 0.500D-01 0.789D-01 0.232D+00
 Coeff-Com:  0.633D+00
 Coeff:     -0.972D-03-0.183D-02 0.862D-02 0.500D-01 0.789D-01 0.232D+00
 Coeff:      0.633D+00
 Gap=     0.131 Goal=   None    Shift=    0.000
 RMSDP=5.19D-05 MaxDP=1.86D-03 DE=-6.48D-04 OVMax= 3.23D-03

 Cycle   8  Pass 1  IDiag  1:
 E= -1556.50673010236     Delta-E=       -0.000021053633 Rises=F Damp=F
 DIIS: error= 6.37D-05 at cycle   8 NSaved=   8.
 NSaved= 8 IEnMin= 8 EnMin= -1556.50673010236     IErMin= 8 ErrMin= 6.37D-05
 ErrMax= 6.37D-05  0.00D+00 EMaxC= 1.00D+00 BMatC= 1.80D-06 BMatP= 2.14D-05
 IDIUse=1 WtCom= 1.00D+00 WtEn= 0.00D+00
 Coeff-Com: -0.813D-04-0.568D-03-0.655D-03 0.565D-02 0.199D-01 0.682D-01
 Coeff-Com:  0.282D+00 0.626D+00
 Coeff:     -0.813D-04-0.568D-03-0.655D-03 0.565D-02 0.199D-01 0.682D-01
 Coeff:      0.282D+00 0.626D+00
 Gap=     0.131 Goal=   None    Shift=    0.000
 RMSDP=1.23D-05 MaxDP=6.16D-04 DE=-2.11D-05 OVMax= 7.40D-04

 Cycle   9  Pass 1  IDiag  1:
 E= -1556.50673145816     Delta-E=       -0.000001355802 Rises=F Damp=F
 DIIS: error= 5.16D-05 at cycle   9 NSaved=   9.
 NSaved= 9 IEnMin= 9 EnMin= -1556.50673145816     IErMin= 9 ErrMin= 5.16D-05
 ErrMax= 5.16D-05  0.00D+00 EMaxC= 1.00D+00 BMatC= 5.61D-07 BMatP= 1.80D-06
 IDIUse=1 WtCom= 1.00D+00 WtEn= 0.00D+00
 Coeff-Com: -0.857D-04-0.782D-04-0.114D-02-0.321D-03 0.570D-02 0.193D-01
 Coeff-Com:  0.108D+00 0.407D+00 0.462D+00
 Coeff:     -0.857D-04-0.782D-04-0.114D-02-0.321D-03 0.570D-02 0.193D-01
 Coeff:      0.108D+00 0.407D+00 0.462D+00
 Gap=     0.131 Goal=   None    Shift=    0.000
 RMSDP=4.74D-06 MaxDP=1.20D-04 DE=-1.36D-06 OVMax= 1.93D-04

 Cycle  10  Pass 1  IDiag  1:
 E= -1556.50673191129     Delta-E=       -0.000000453131 Rises=F Damp=F
 DIIS: error= 9.50D-06 at cycle  10 NSaved=  10.
 NSaved=10 IEnMin=10 EnMin= -1556.50673191129     IErMin=10 ErrMin= 9.50D-06
 ErrMax= 9.50D-06  0.00D+00 EMaxC= 1.00D+00 BMatC= 2.35D-08 BMatP= 5.61D-07
 IDIUse=1 WtCom= 1.00D+00 WtEn= 0.00D+00
 Coeff-Com:  0.361D-05-0.521D-05-0.493D-03-0.696D-03 0.418D-03 0.858D-03
 Coeff-Com:  0.122D-01 0.121D+00 0.225D+00 0.642D+00
 Coeff:      0.361D-05-0.521D-05-0.493D-03-0.696D-03 0.418D-03 0.858D-03
 Coeff:      0.122D-01 0.121D+00 0.225D+00 0.642D+00
 Gap=     0.131 Goal=   None    Shift=    0.000
 RMSDP=1.99D-06 MaxDP=1.16D-04 DE=-4.53D-07 OVMax= 6.98D-05

 Cycle  11  Pass 1  IDiag  1:
 E= -1556.50673193494     Delta-E=       -0.000000023651 Rises=F Damp=F
 DIIS: error= 1.36D-06 at cycle  11 NSaved=  11.
 NSaved=11 IEnMin=11 EnMin= -1556.50673193494     IErMin=11 ErrMin= 1.36D-06
 ErrMax= 1.36D-06  0.00D+00 EMaxC= 1.00D+00 BMatC= 7.69D-10 BMatP= 2.35D-08
 IDIUse=1 WtCom= 1.00D+00 WtEn= 0.00D+00
 Coeff-Com:  0.312D-05 0.567D-05-0.611D-04-0.224D-03-0.246D-03-0.144D-02
 Coeff-Com: -0.415D-02 0.663D-02 0.341D-01 0.172D+00 0.794D+00
 Coeff:      0.312D-05 0.567D-05-0.611D-04-0.224D-03-0.246D-03-0.144D-02
 Coeff:     -0.415D-02 0.663D-02 0.341D-01 0.172D+00 0.794D+00
 Gap=     0.131 Goal=   None    Shift=    0.000
 RMSDP=6.93D-07 MaxDP=5.50D-05 DE=-2.37D-08 OVMax= 1.80D-05

 Cycle  12  Pass 1  IDiag  1:
 E= -1556.50673193583     Delta-E=       -0.000000000888 Rises=F Damp=F
 DIIS: error= 6.89D-07 at cycle  12 NSaved=  12.
 NSaved=12 IEnMin=12 EnMin= -1556.50673193583     IErMin=12 ErrMin= 6.89D-07
 ErrMax= 6.89D-07  0.00D+00 EMaxC= 1.00D+00 BMatC= 1.28D-10 BMatP= 7.69D-10
 IDIUse=1 WtCom= 1.00D+00 WtEn= 0.00D+00
 Coeff-Com:  0.297D-06 0.397D-05 0.119D-04-0.614D-04-0.133D-03-0.793D-03
 Coeff-Com: -0.258D-02-0.689D-02-0.221D-02 0.237D-01 0.306D+00 0.683D+00
 Coeff:      0.297D-06 0.397D-05 0.119D-04-0.614D-04-0.133D-03-0.793D-03
 Coeff:     -0.258D-02-0.689D-02-0.221D-02 0.237D-01 0.306D+00 0.683D+00
 Gap=     0.131 Goal=   None    Shift=    0.000
 RMSDP=2.50D-07 MaxDP=1.77D-05 DE=-8.88D-10 OVMax= 6.98D-06

 Cycle  13  Pass 1  IDiag  1:
 E= -1556.50673193598     Delta-E=       -0.000000000153 Rises=F Damp=F
 DIIS: error= 1.52D-07 at cycle  13 NSaved=  13.
 NSaved=13 IEnMin=13 EnMin= -1556.50673193598     IErMin=13 ErrMin= 1.52D-07
 ErrMax= 1.52D-07  0.00D+00 EMaxC= 1.00D+00 BMatC= 9.48D-12 BMatP= 1.28D-10
 IDIUse=1 WtCom= 1.00D+00 WtEn= 0.00D+00
 Coeff-Com: -0.997D-07 0.454D-06 0.983D-05-0.212D-05-0.133D-04-0.140D-03
 Coeff-Com: -0.366D-03-0.297D-02-0.339D-02-0.709D-02 0.196D-01 0.199D+00
 Coeff-Com:  0.796D+00
[...]
     6                                       1               9        8                  5    5       4  3   3   2     1    1        
     8                                       5               5        2                  7    1       0  6   1   5     7    1        
     0                                       7               2        9                  3    5       3  1   7   4     5    9        
 
     X                                       X               X        X                  X            X  X       X     X    X        
     X                                       X               X        X                                                              
     X                                       X               X        X                                                              
     X                                       X               X        X                                                              
     X                                       X               X        X                                                              
                                             X               X        X                                                              
                                             X               X        X                                                              
                                             X               X        X                                                              
                                             X               X        X                                                              
                                             X               X        X                                                              
                                             X               X        X                                                              
                                             X               X        X                                                              
                                             X               X        X                                                              
                                             X               X        X                                                              
                                             X               X        X                                                              
                                             X               X        X                                                              
                                             X               X        X                                                              
                                             X                        X                                                              
                                                                      X                                                              
                                                                      X                                                              
 
 -------------------------------------------------------------------
 Center     Atomic                   Forces (Hartrees/Bohr)
 Number     Number              X              Y              Z
 -------------------------------------------------------------------
      1        6          -0.000099609   -0.000108502    0.000057262
      2        6           0.000036881    0.000042867   -0.000023060
      3       17           0.000002175    0.000006623    0.000003603
      4       17          -0.000005691    0.000000667    0.000013219
      5        9           0.000014095   -0.000007970   -0.000062507
      6       17           0.000052148    0.000066316    0.000011483
 -------------------------------------------------------------------
 Cartesian Forces:  Max     0.000108502 RMS     0.000047370
 Force constants in Cartesian coordinates: 
                1             2             3             4             5 
      1  0.333337D+00
      2  0.233648D+00  0.327858D+00
      3 -0.188221D+00 -0.754430D-01  0.481123D+00
      4 -0.224820D+00 -0.146316D+00  0.162796D+00  0.369755D+00
      5 -0.142591D+00 -0.172651D+00  0.130041D+00  0.246786D+00  0.374619D+00
      6  0.172933D+00  0.142074D+00 -0.223180D+00 -0.197747D+00 -0.514825D-01
      7 -0.302120D-01 -0.428725D-02  0.193141D-01  0.113392D-02  0.461405D-02
      8  0.103605D-03 -0.324890D-01 -0.326128D-01 -0.633741D-03  0.373922D-02
      9  0.312785D-01 -0.184182D-01 -0.171902D+00  0.110834D-02 -0.101979D-01
     10 -0.720698D-01 -0.658335D-01 -0.133043D-01 -0.100276D-01 -0.246565D-01
     11 -0.701450D-01 -0.112843D+00 -0.241430D-01 -0.192952D-01 -0.213114D-01
     12 -0.250281D-01 -0.380593D-01 -0.434500D-01  0.324260D-02  0.194308D-02
     13  0.329175D-02  0.392774D-02  0.266545D-01 -0.528474D-01 -0.102213D-01
     14 -0.435399D-02  0.719923D-02  0.112684D-01 -0.356116D-02 -0.642802D-01
     15  0.408610D-02 -0.155117D-01 -0.472261D-01  0.469206D-01 -0.457939D-01
     16 -0.952672D-02 -0.211391D-01 -0.723914D-02 -0.831941D-01 -0.739316D-01
     17 -0.166622D-01 -0.170742D-01 -0.911102D-02 -0.769796D-01 -0.120116D+00
     18  0.495168D-02  0.535872D-02  0.463570D-02 -0.163209D-01 -0.245102D-01
                6             7             8             9            10 
      6  0.599598D+00
      7  0.153994D-01  0.273959D-01
      8  0.676111D-02  0.950657D-02  0.379446D-01
      9 -0.293547D-01 -0.298413D-01  0.449198D-01  0.228994D+00
     10 -0.113464D-01  0.232056D-02 -0.430715D-02 -0.839438D-02  0.828489D-01
     11 -0.153727D-01 -0.574048D-02 -0.104177D-01 -0.189483D-01  0.977098D-01
     12  0.204382D-02 -0.122993D-01 -0.235832D-01 -0.211326D-01  0.298069D-01
     13  0.287755D-01  0.227499D-02 -0.373722D-02  0.395211D-02 -0.321055D-02
     14 -0.673237D-01 -0.375267D-02  0.218032D-02 -0.360654D-04  0.107310D-02
     15 -0.311729D+00  0.391035D-02 -0.859257D-04 -0.622892D-02  0.160418D-02
     16 -0.801484D-02 -0.291337D-02 -0.932061D-03  0.189679D-02  0.138414D-03
     17 -0.146557D-01 -0.340225D-03 -0.957368D-03  0.268063D-02 -0.398580D-02
     18 -0.373779D-01  0.351683D-02  0.460106D-02 -0.375354D-03  0.163399D-02
               11            12            13            14            15 
     11  0.145449D+00
     12  0.537151D-01  0.596935D-01
     13  0.149866D-02  0.275834D-02  0.490170D-01
     14 -0.261782D-03  0.567273D-02  0.197337D-01  0.732095D-01
     15  0.430181D-02  0.290488D-02 -0.428371D-01  0.834734D-01  0.384979D+00
     16 -0.402779D-02  0.151959D-02  0.147422D-02 -0.913894D-02 -0.136842D-01
     17 -0.614654D-03  0.311671D-03 -0.112016D-01 -0.180471D-01 -0.263836D-01
     18  0.447077D-03 -0.597163D-04 -0.193034D-01 -0.330547D-01 -0.227004D-01
               16            17            18 
     16  0.940215D-01
     17  0.109169D+00  0.156809D+00
     18  0.255218D-01  0.471581D-01  0.558776D-01
 FormGI is forming the generalized inverse of G from B-inverse, IUseBI=4.
 Force constants in internal coordinates: 
                1             2             3             4             5 
      1  0.598022D+00
      2  0.213777D-01  0.242354D+00
      3  0.211344D-01  0.288693D-01  0.237544D+00
      4  0.288708D-01  0.627493D-02  0.554307D-02  0.409529D+00
      5  0.226834D-01  0.307109D-02  0.307105D-02  0.388316D-01  0.253272D+00
      6  0.205101D-01  0.267154D-01 -0.403101D-01  0.886181D-02 -0.324845D-03
      7  0.130780D-01 -0.391852D-01  0.279898D-01 -0.813456D-02  0.405111D-02
      8 -0.335881D-01  0.124697D-01  0.123203D-01 -0.727245D-03 -0.372626D-02
      9  0.220920D-01  0.494594D-02 -0.447987D-02  0.334799D-01 -0.408069D-01
     10  0.144656D-01 -0.157527D-02  0.569311D-02 -0.485956D-01  0.199499D-01
     11 -0.365576D-01 -0.337067D-02 -0.121324D-02  0.151157D-01  0.208569D-01
     12  0.000000D+00  0.460438D-05  0.000000D+00  0.105902D-05 -0.275824D-05
     13  0.412261D-05  0.287421D-05  0.227709D-05  0.367285D-05  0.357153D-05
     14 -0.674509D-05 -0.444935D-05  0.160862D-05  0.190634D-05 -0.114378D-05
     15 -0.219096D-05 -0.617952D-05  0.421499D-05  0.452017D-05  0.518599D-05
                6             7             8             9            10 
      6  0.151906D+00
      7 -0.778856D-01  0.148776D+00
      8 -0.740207D-01 -0.708900D-01  0.144911D+00
      9 -0.160682D-01  0.210565D-01 -0.498826D-02  0.164048D+00
     10  0.281953D-01 -0.167193D-01 -0.114760D-01 -0.776536D-01  0.151082D+00
     11 -0.121271D-01 -0.433722D-02  0.164643D-01 -0.863939D-01 -0.734282D-01
     12 -0.106615D-04  0.116449D-04  0.205602D-05  0.824505D-05 -0.107489D-04
     13 -0.915536D-05  0.102198D-04  0.106830D-05  0.715338D-05 -0.662534D-05
     14 -0.177102D-05  0.000000D+00  0.000000D+00  0.477699D-05 -0.599313D-05
     15  0.000000D+00 -0.198242D-05  0.000000D+00  0.368532D-05 -0.186954D-05
               11            12            13            14            15 
     11  0.159822D+00
     12  0.000000D+00  0.394613D-01
     13  0.000000D+00  0.567927D-02  0.253593D-01
     14  0.000000D+00  0.947885D-02 -0.153590D-01  0.308375D-01
     15  0.000000D+00 -0.243032D-01  0.432109D-02  0.599964D-02  0.346239D-01
 Leave Link  716 at Wed Jun 12 23:27:00 2024, MaxMem=  1073741824 cpu:         0.4
 (Enter /apps/z_install_tree/linux-rocky8-ivybridge/gcc-12.2.0/gaussian-09-D.01-wczn3gur5lpur3omlkzwa2l5ecyxp5ef/g09/l103.exe)

 GradGradGradGradGradGradGradGradGradGradGradGradGradGradGradGradGradGrad
 Berny optimization.
 Red2BG is reusing G-inverse.
 Internal  Forces:  Max     0.000159363 RMS     0.000051519
 Search for a local minimum.
 Step number   1 out of a maximum of    2
 All quantities printed in internal units (Hartrees-Bohrs-Radians)
 Second derivative matrix not updated -- analytic derivatives used.
 The second derivative matrix:
                          R1        R2        R3        R4        R5
           R1           0.59802
           R2           0.02138   0.24235
           R3           0.02113   0.02887   0.23754
           R4           0.02887   0.00627   0.00554   0.40953
           R5           0.02268   0.00307   0.00307   0.03883   0.25327
           A1           0.02051   0.02672  -0.04031   0.00886  -0.00032
           A2           0.01308  -0.03919   0.02799  -0.00813   0.00405
           A3          -0.03359   0.01247   0.01232  -0.00073  -0.00373
           A4           0.02209   0.00495  -0.00448   0.03348  -0.04081
           A5           0.01447  -0.00158   0.00569  -0.04860   0.01995
           A6          -0.03656  -0.00337  -0.00121   0.01512   0.02086
           D1           0.00000   0.00000   0.00000   0.00000   0.00000
           D2           0.00000   0.00000   0.00000   0.00000   0.00000
           D3          -0.00001   0.00000   0.00000   0.00000   0.00000
           D4           0.00000  -0.00001   0.00000   0.00000   0.00001
                          A1        A2        A3        A4        A5
           A1           0.15191
           A2          -0.07789   0.14878
           A3          -0.07402  -0.07089   0.14491
           A4          -0.01607   0.02106  -0.00499   0.16405
           A5           0.02820  -0.01672  -0.01148  -0.07765   0.15108
           A6          -0.01213  -0.00434   0.01646  -0.08639  -0.07343
           D1          -0.00001   0.00001   0.00000   0.00001  -0.00001
           D2          -0.00001   0.00001   0.00000   0.00001  -0.00001
           D3           0.00000   0.00000   0.00000   0.00000  -0.00001
           D4           0.00000   0.00000   0.00000   0.00000   0.00000
                          A6        D1        D2        D3        D4
           A6           0.15982
           D1           0.00000   0.03946
           D2           0.00000   0.00568   0.02536
           D3           0.00000   0.00948  -0.01536   0.03084
           D4           0.00000  -0.02430   0.00432   0.00600   0.03462
 ITU=  0
     Eigenvalues ---    0.02441   0.04409   0.06178   0.13066   0.19014
     Eigenvalues ---    0.19224   0.23049   0.27551   0.28770   0.30917
     Eigenvalues ---    0.42888   0.61648
 Angle between quadratic step and forces=  32.07 degrees.
 Linear search not attempted -- first point.
 Iteration  1 RMS(Cart)=  0.00017691 RMS(Int)=  0.00000001
 Iteration  2 RMS(Cart)=  0.00000001 RMS(Int)=  0.00000000
 ITry= 1 IFail=0 DXMaxC= 2.90D-04 DCOld= 1.00D+10 DXMaxT= 3.00D-01 DXLimC= 3.00D+00 Rises=F
 Variable       Old X    -DE/DX   Delta X   Delta X   Delta X     New X
                                 (Linear)    (Quad)   (Total)
    R1        2.51988   0.00016   0.00000   0.00025   0.00025   2.52013
    R2        3.26166   0.00000   0.00000   0.00005   0.00005   3.26171
    R3        3.27101   0.00000   0.00000  -0.00010  -0.00010   3.27091
    R4        2.51436   0.00006   0.00000   0.00013   0.00013   2.51450
    R5        3.24267   0.00008   0.00000   0.00029   0.00029   3.24296
    A1        2.14565  -0.00003   0.00000  -0.00020  -0.00020   2.14545
    A2        2.10298   0.00004   0.00000   0.00018   0.00018   2.10317
    A3        2.03455  -0.00001   0.00000   0.00001   0.00001   2.03457
    A4        2.10974   0.00001   0.00000   0.00000   0.00000   2.10974
    A5        2.19837   0.00002   0.00000   0.00010   0.00010   2.19846
    A6        1.97508  -0.00002   0.00000  -0.00010  -0.00010   1.97499
    D1        3.14155   0.00000   0.00000   0.00002   0.00002   3.14157
    D2       -0.00011   0.00000   0.00000   0.00007   0.00007  -0.00005
    D3        0.00008   0.00000   0.00000  -0.00009  -0.00009  -0.00001
    D4       -3.14158   0.00000   0.00000  -0.00004  -0.00004   3.14156
         Item               Value     Threshold  Converged?
 Maximum Force            0.000159     0.000450     YES
 RMS     Force            0.000052     0.000300     YES
 Maximum Displacement     0.000290     0.001800     YES
 RMS     Displacement     0.000177     0.001200     YES
 Predicted change in Energy=-4.477661D-08
 Optimization completed.
    -- Stationary point found.
                           ----------------------------
                           !   Optimized Parameters   !
                           ! (Angstroms and Degrees)  !
 --------------------------                            --------------------------
 ! Name  Definition              Value          Derivative Info.                !
 --------------------------------------------------------------------------------
 ! R1    R(1,2)                  1.3335         -DE/DX =    0.0002              !
 ! R2    R(1,3)                  1.726          -DE/DX =    0.0                 !
 ! R3    R(1,4)                  1.7309         -DE/DX =    0.0                 !
 ! R4    R(2,5)                  1.3305         -DE/DX =    0.0001              !
 ! R5    R(2,6)                  1.7159         -DE/DX =    0.0001              !
 ! A1    A(2,1,3)              122.9366         -DE/DX =    0.0                 !
 ! A2    A(2,1,4)              120.492          -DE/DX =    0.0                 !
 ! A3    A(3,1,4)              116.5713         -DE/DX =    0.0                 !
 ! A4    A(1,2,5)              120.879          -DE/DX =    0.0                 !
 ! A5    A(1,2,6)              125.9571         -DE/DX =    0.0                 !
 ! A6    A(5,2,6)              113.1639         -DE/DX =    0.0                 !
 ! D1    D(3,1,2,5)            179.9974         -DE/DX =    0.0                 !
 ! D2    D(3,1,2,6)             -0.0065         -DE/DX =    0.0                 !
 ! D3    D(4,1,2,5)              0.0046         -DE/DX =    0.0                 !
 ! D4    D(4,1,2,6)            180.0006         -DE/DX =    0.0                 !
 --------------------------------------------------------------------------------
 GradGradGradGradGradGradGradGradGradGradGradGradGradGradGradGradGradGrad

 Leave Link  103 at Wed Jun 12 23:27:00 2024, MaxMem=  1073741824 cpu:         0.6
 (Enter /apps/z_install_tree/linux-rocky8-ivybridge/gcc-12.2.0/gaussian-09-D.01-wczn3gur5lpur3omlkzwa2l5ecyxp5ef/g09/l9999.exe)
 1\1\GINC-K160\Freq\RB3LYP\Gen\C2Cl3F1\Z5112331\12-Jun-2024\0\\#P Geom=
 AllCheck Guess=TCheck SCRF=Check GenChk RB3LYP/ChkBas Freq\\tetrachlor
 oethene\\0,1\C,49.8326755413,35.7031242989,32.6022962587\C,50.65044350
 09,36.3761171909,31.7920731182\Cl,49.6408260104,36.0889647957,34.27363
 78883\Cl,48.8991279719,34.3747617961,32.0022072217\F,50.7668118067,36.
 0431909457,30.5091223543\Cl,51.6361151687,37.7088409727,32.2356631589\
 \Version=ES64L-G09RevD.01\HF=-1556.7471266\RMSD=2.554e-09\RMSF=4.737e-
 05\ZeroPoint=0.0167135\Thermal=0.0229064\Dipole=0.0534884,0.1259983,0.
 1703065\DipoleDeriv=0.1522682,0.3133931,0.1272905,0.271487,0.4228546,0
 .4713883,0.0129849,0.3357476,0.8001862,0.5365196,0.4985738,-0.173429,0
 .4950655,0.7062648,0.152328,-0.1830477,0.1409736,1.03829,-0.0292401,-0
 .0452154,0.0301338,-0.0246845,-0.0744547,-0.1724979,0.0861052,-0.10608
 39,-0.5491201,-0.1976693,-0.2959921,-0.0953698,-0.306351,-0.4069049,-0
 .1786057,-0.1234838,-0.2119801,-0.1559928,-0.2113369,-0.127759,0.12412
 63,-0.0702869,-0.235497,-0.2363397,0.2807413,-0.0505184,-1.1102805,-0.
 2505416,-0.3430004,-0.0127517,-0.3652301,-0.4122628,-0.0362731,-0.0732
 999,-0.1081388,-0.0230828\Polar=61.1547913,22.2991582,67.9672782,-5.89
 62772,2.6187737,66.7341741\PG=C01 [X(C2Cl3F1)]\NImag=0\\0.33333705,0.2
 3364845,0.32785848,-0.18822144,-0.07544300,0.48112267,-0.22482034,-0.1
 4631640,0.16279634,0.36975545,-0.14259084,-0.17265133,0.13004146,0.246
 78611,0.37461935,0.17293327,0.14207350,-0.22318015,-0.19774698,-0.0514
 8247,0.59959759,-0.03021196,-0.00428725,0.01931408,0.00113392,0.004614
 05,0.01539942,0.02739586,0.00010361,-0.03248899,-0.03261284,-0.0006337
 4,0.00373922,0.00676111,0.00950657,0.03794456,0.03127847,-0.01841819,-
 0.17190218,0.00110834,-0.01019794,-0.02935471,-0.02984134,0.04491984,0
 .22899372,-0.07206979,-0.06583350,-0.01330430,-0.01002758,-0.02465650,
 -0.01134639,0.00232056,-0.00430715,-0.00839438,0.08284895,-0.07014499,
 -0.11284323,-0.02414302,-0.01929524,-0.02131138,-0.01537267,-0.0057404
 8,-0.01041774,-0.01894828,0.09770984,0.14544879,-0.02502808,-0.0380593
 3,-0.04344996,0.00324260,0.00194308,0.00204382,-0.01229934,-0.02358324
 ,-0.02113255,0.02980689,0.05371508,0.05969353,0.00329175,0.00392774,0.
 02665446,-0.05284738,-0.01022126,0.02877551,0.00227499,-0.00373722,0.0
 0395211,-0.00321055,0.00149866,0.00275834,0.04901698,-0.00435399,0.007
 19923,0.01126841,-0.00356116,-0.06428022,-0.06732373,-0.00375267,0.002
 18032,-0.00003607,0.00107310,-0.00026178,0.00567273,0.01973366,0.07320
 950,0.00408610,-0.01551171,-0.04722606,0.04692058,-0.04579391,-0.31172
 869,0.00391035,-0.00008593,-0.00622892,0.00160418,0.00430181,0.0029048
 8,-0.04283706,0.08347337,0.38497917,-0.00952672,-0.02113905,-0.0072391
 4,-0.08319408,-0.07393156,-0.00801484,-0.00291337,-0.00093206,0.001896
 79,0.00013841,-0.00402779,0.00151959,0.00147422,-0.00913894,-0.0136841
 5,0.09402153,-0.01666223,-0.01707416,-0.00911102,-0.07697957,-0.120115
 64,-0.01465575,-0.00034023,-0.00095737,0.00268063,-0.00398580,-0.00061
 465,0.00031167,-0.01120157,-0.01804706,-0.02638363,0.10916940,0.156808
 89,0.00495168,0.00535872,0.00463570,-0.01632089,-0.02451022,-0.0373778
 6,0.00351683,0.00460106,-0.00037535,0.00163399,0.00044708,-0.00005972,
 -0.01930336,-0.03305472,-0.02270037,0.02552175,0.04715809,0.05587761\\
 0.00009961,0.00010850,-0.00005726,-0.00003688,-0.00004287,0.00002306,-
 0.00000218,-0.00000662,-0.00000360,0.00000569,-0.00000067,-0.00001322,
 -0.00001409,0.00000797,0.00006251,-0.00005215,-0.00006632,-0.00001148\
 \\@


 ... UNTIL SCIENCE IS MIXED WITH EMOTION AND APPEALS TO THE HEART AND
 IMAGINATION , IT IS LIKE DEAD INORGANIC MATTER; AND WHEN IT IS SO MIXED
 AND SO TRANSFORMED IT IS LITERATURE.

                                  -- JOHN BURROUGHS
 Job cpu time:       0 days  0 hours  4 minutes 48.4 seconds.
 File lengths (MBytes):  RWF=    133 Int=      0 D2E=      0 Chk=      4 Scr=      2
 Normal termination of Gaussian 09 at Wed Jun 12 23:27:00 2024.
