 Entering Gaussian System, Link 0=g09
 Initial command:
 /apps/z_install_tree/linux-rocky8-ivybridge/gcc-12.2.0/gaussian-09-D.01-wczn3gur5lpur3omlkzwa2l5ecyxp5ef/g09/l1.exe "/srv/scratch/z5112331/GMX/ligands/Tetrachloroethene/Gau-3807686.inp" -scrdir="/srv/scratch/z5112331/GMX/ligands/Tetrachloroethene/"
 Entering Link 1 = /apps/z_install_tree/linux-rocky8-ivybridge/gcc-12.2.0/gaussian-09-D.01-wczn3gur5lpur3omlkzwa2l5ecyxp5ef/g09/l1.exe PID=   3807687.
  
 Copyright (c) 1988,1990,1992,1993,1995,1998,2003,2009,2013,
            Gaussian, Inc.  All Rights Reserved.
  
 This is part of the Gaussian(R) 09 program.  It is based on
 the Gaussian(R) 03 system (copyright 2003, Gaussian, Inc.),
 the Gaussian(R) 98 system (copyright 1998, Gaussian, Inc.),
 the Gaussian(R) 94 system (copyright 1995, Gaussian, Inc.),
 the Gaussian 92(TM) system (copyright 1992, Gaussian, Inc.),
 the Gaussian 90(TM) system (copyright 1990, Gaussian, Inc.),
 the Gaussian 88(TM) system (copyright 1988, Gaussian, Inc.),
 the Gaussian 86(TM) system (copyright 1986, Carnegie Mellon
 University), and the Gaussian 82(TM) system (copyright 1983,
 Carnegie Mellon University). Gaussian is a federally registered
 trademark of Gaussian, Inc.
  
 This software contains proprietary and confidential information,
 including trade secrets, belonging to Gaussian, Inc.
  
 This software is provided under written license and may be
 used, copied, transmitted, or stored only in accord with that
 written license.
  
 The following legend is applicable only to US Government
 contracts under FAR:
  
                    RESTRICTED RIGHTS LEGEND
  
 Use, reproduction and disclosure by the US Government is
 subject to restrictions as set forth in subparagraphs (a)
 and (c) of the Commercial Computer Software - Restricted
 Rights clause in FAR 52.227-19.
  
 Gaussian, Inc.
 340 Quinnipiac St., Bldg. 40, Wallingford CT 06492
  
  
 ---------------------------------------------------------------
 Warning -- This program may not be used in any manner that
 competes with the business of Gaussian, Inc. or will provide
 assistance to any competitor of Gaussian, Inc.  The licensee
 of this program is prohibited from giving any competitor of
 Gaussian, Inc. access to this program.  By using this program,
 the user acknowledges that Gaussian, Inc. is engaged in the
 business of creating and licensing software in the field of
 computational chemistry and represents and warrants to the
 licensee that it is not a competitor of Gaussian, Inc. and that
 it will not use this program in any manner prohibited above.
 ---------------------------------------------------------------
  

 Cite this work as:
 Gaussian 09, Revision D.01,
 M. J. Frisch, G. W. Trucks, H. B. Schlegel, G. E. Scuseria, 
 M. A. Robb, J. R. Cheeseman, G. Scalmani, V. Barone, B. Mennucci, 
 G. A. Petersson, H. Nakatsuji, M. Caricato, X. Li, H. P. Hratchian, 
 A. F. Izmaylov, J. Bloino, G. Zheng, J. L. Sonnenberg, M. Hada, 
 M. Ehara, K. Toyota, R. Fukuda, J. Hasegawa, M. Ishida, T. Nakajima, 
 Y. Honda, O. Kitao, H. Nakai, T. Vreven, J. A. Montgomery, Jr., 
 J. E. Peralta, F. Ogliaro, M. Bearpark, J. J. Heyd, E. Brothers, 
 K. N. Kudin, V. N. Staroverov, T. Keith, R. Kobayashi, J. Normand, 
 K. Raghavachari, A. Rendell, J. C. Burant, S. S. Iyengar, J. Tomasi, 
 M. Cossi, N. Rega, J. M. Millam, M. Klene, J. E. Knox, J. B. Cross, 
 V. Bakken, C. Adamo, J. Jaramillo, R. Gomperts, R. E. Stratmann, 
 O. Yazyev, A. J. Austin, R. Cammi, C. Pomelli, J. W. Ochterski, 
 R. L. Martin, K. Morokuma, V. G. Zakrzewski, G. A. Voth, 
 P. Salvador, J. J. Dannenberg, S. Dapprich, A. D. Daniels, 
 O. Farkas, J. B. Foresman, J. V. Ortiz, J. Cioslowski, 
 and D. J. Fox, Gaussian, Inc., Wallingford CT, 2013.
 
 ******************************************
 Gaussian 09:  ES64L-G09RevD.01 24-Apr-2013
                12-Jun-2024 
 ******************************************
 %chk=tetrachloroethene.chk
 %mem=8GB
 %nprocshared=20
 Will use up to   20 processors via shared memory.
 -------------------------------------------------------------------
 #p opt freq b3lyp/gen nosymm em=gd3 int=ultrafine scf=xqc scfcyc=96
 -------------------------------------------------------------------
 1/14=-1,18=20,19=15,26=4,38=1/1,3;
 2/9=110,12=2,15=1,17=6,18=5,40=1/2;
 3/5=7,11=2,16=1,25=1,30=1,71=1,74=-5,75=-5,124=31/1,2,3;
 4//1;
 5/5=2,7=96,8=3,13=1,38=5/2,8;
 6/7=2,8=2,9=2,10=2,28=1/1;
 7/30=1/1,2,3,16;
 1/14=-1,18=20,19=15,26=4/3(2);
 2/9=110,15=1/2;
 99//99;
 2/9=110,15=1/2;
 3/5=7,6=1,11=2,16=1,25=1,30=1,71=1,74=-5,75=-5,82=7,124=31/1,2,3;
 4/5=5,16=3,69=1/1;
 5/5=2,7=96,8=3,13=1,38=5/2,8;
 7/30=1/1,2,3,16;
 1/14=-1,18=20,19=15,26=4/3(-5);
 2/9=110,15=1/2;
 6/7=2,8=2,9=2,10=2,19=2,28=1/1;
 99/9=1/99;
 Leave Link    1 at Wed Jun 12 23:12:08 2024, MaxMem=  1073741824 cpu:         1.0
 (Enter /apps/z_install_tree/linux-rocky8-ivybridge/gcc-12.2.0/gaussian-09-D.01-wczn3gur5lpur3omlkzwa2l5ecyxp5ef/g09/l101.exe)
 -----------------
 tetrachloroethene
 -----------------
 Symbolic Z-matrix:
 Charge =  0 Multiplicity = 1
 C                    0     49.582    35.95     32.543 
 C                    0     50.943    36.295    31.949 
 Cl                   0     49.632    36.144    34.319 
 Cl                   0     49.095    34.274    32.166 
 Cl                   0     50.905    36.344    30.163 
 Cl                   0     51.269    37.288    32.275 
 
 NAtoms=      6 NQM=        6 NQMF=       0 NMMI=      0 NMMIF=      0
                NMic=       0 NMicF=      0.
                    Isotopes and Nuclear Properties:
 (Nuclear quadrupole moments (NQMom) in fm**2, nuclear magnetic moments (NMagM)
  in nuclear magnetons)

  Atom         1           2           3           4           5           6
 IAtWgt=          12          12          35          35          35          35
 AtmWgt=  12.0000000  12.0000000  34.9688527  34.9688527  34.9688527  34.9688527
 NucSpn=           0           0           3           3           3           3
 AtZEff=   0.0000000   0.0000000   0.0000000   0.0000000   0.0000000   0.0000000
 NQMom=    0.0000000   0.0000000  -8.1650000  -8.1650000  -8.1650000  -8.1650000
 NMagM=    0.0000000   0.0000000   0.8218740   0.8218740   0.8218740   0.8218740
 AtZNuc=   6.0000000   6.0000000  17.0000000  17.0000000  17.0000000  17.0000000
 Leave Link  101 at Wed Jun 12 23:12:08 2024, MaxMem=  1073741824 cpu:         2.2
 (Enter /apps/z_install_tree/linux-rocky8-ivybridge/gcc-12.2.0/gaussian-09-D.01-wczn3gur5lpur3omlkzwa2l5ecyxp5ef/g09/l103.exe)

 GradGradGradGradGradGradGradGradGradGradGradGradGradGradGradGradGradGrad
 Berny optimization.
 Initialization pass.
                           ----------------------------
                           !    Initial Parameters    !
                           ! (Angstroms and Degrees)  !
 --------------------------                            --------------------------
 ! Name  Definition              Value          Derivative Info.                !
 --------------------------------------------------------------------------------
 ! R1    R(1,2)                  1.5245         estimate D2E/DX2                !
 ! R2    R(1,3)                  1.7873         estimate D2E/DX2                !
 ! R3    R(1,4)                  1.7856         estimate D2E/DX2                !
 ! R4    R(2,5)                  1.7871         estimate D2E/DX2                !
 ! R5    R(2,6)                  1.0948         estimate D2E/DX2                !
 ! R6    R(5,6)                  2.3418         estimate D2E/DX2                !
 ! A1    A(2,1,3)              109.7328         estimate D2E/DX2                !
 ! A2    A(2,1,4)              111.9399         estimate D2E/DX2                !
 ! A3    A(3,1,4)              108.6219         estimate D2E/DX2                !
 ! A4    A(1,2,5)              112.1243         estimate D2E/DX2                !
 ! A5    A(1,2,6)              110.7975         estimate D2E/DX2                !
 ! D1    D(3,1,2,5)           -172.0354         estimate D2E/DX2                !
 ! D2    D(3,1,2,6)            -53.5691         estimate D2E/DX2                !
 ! D3    D(4,1,2,5)             67.2864         estimate D2E/DX2                !
 ! D4    D(4,1,2,6)           -174.2473         estimate D2E/DX2                !
 --------------------------------------------------------------------------------
 Trust Radius=3.00D-01 FncErr=1.00D-07 GrdErr=1.00D-06
 Number of steps in this run=     25 maximum allowed number of steps=    100.
 GradGradGradGradGradGradGradGradGradGradGradGradGradGradGradGradGradGrad

 Leave Link  103 at Wed Jun 12 23:12:09 2024, MaxMem=  1073741824 cpu:         0.2
 (Enter /apps/z_install_tree/linux-rocky8-ivybridge/gcc-12.2.0/gaussian-09-D.01-wczn3gur5lpur3omlkzwa2l5ecyxp5ef/g09/l202.exe)
                          Input orientation:                          
 ---------------------------------------------------------------------
 Center     Atomic      Atomic             Coordinates (Angstroms)
 Number     Number       Type             X           Y           Z
 ---------------------------------------------------------------------
      1          6           0       49.582000   35.950000   32.543000
      2          6           0       50.943000   36.295000   31.949000
      3         17           0       49.632000   36.144000   34.319000
      4         17           0       49.095000   34.274000   32.166000
      5         17           0       50.905000   36.344000   30.163000
      6         17           0       51.269000   37.288000   32.275000
 ---------------------------------------------------------------------
                    Distance matrix (angstroms):
                    1          2          3          4          5
     1  C    0.000000
     2  C    1.524527   0.000000
     3  Cl   1.787264   2.712641   0.000000
     4  Cl   1.785574   2.747114   2.901840   0.000000
     5  Cl   2.751357   1.787076   4.351191   3.401913   0.000000
     6  Cl   2.169801   1.094806   2.857699   3.717843   2.341832
                    6
     6  Cl   0.000000
 Symmetry turned off by external request.
 Stoichiometry    C2Cl4
 Framework group  C1[X(C2Cl4)]
 Deg. of freedom    12
 Full point group                 C1      NOp   1
 Rotational constants (GHZ):      2.1956092      1.3689739      0.8564781
 Leave Link  202 at Wed Jun 12 23:12:09 2024, MaxMem=  1073741824 cpu:         0.1
 (Enter /apps/z_install_tree/linux-rocky8-ivybridge/gcc-12.2.0/gaussian-09-D.01-wczn3gur5lpur3omlkzwa2l5ecyxp5ef/g09/l301.exe)
 General basis read from cards:  (5D, 7F)
 Centers:       3      4      5      6      1      2
 6-311+g(2d,2p)
 ****
 Ernie: Thresh=  0.10000D-02 Tol=  0.10000D-05 Strict=F.
   194 basis functions,   320 primitive gaussians,   206 cartesian basis functions
    40 alpha electrons       40 beta electrons
       nuclear repulsion energy       529.2299442811 Hartrees.
 IExCor=  402 DFT=T Ex+Corr=B3LYP ExCW=0 ScaHFX=  0.200000
 ScaDFX=  0.800000  0.720000  1.000000  0.810000 ScalE2=  1.000000  1.000000
 IRadAn=      5 IRanWt=     -1 IRanGd=            0 ICorTp=0 IEmpDi=131
 NAtoms=    6 NActive=    6 NUniq=    6 SFac= 1.00D+00 NAtFMM=   60 NAOKFM=F Big=F
 Integral buffers will be    131072 words long.
 Raffenetti 2 integral format.
 Two-electron integral symmetry is turned off.
 R6Disp:  Grimme-D3 Dispersion energy=       -0.0043040859 Hartrees.
 Nuclear repulsion after empirical dispersion term =      529.2256401952 Hartrees.
 Leave Link  301 at Wed Jun 12 23:12:09 2024, MaxMem=  1073741824 cpu:         0.6
 (Enter /apps/z_install_tree/linux-rocky8-ivybridge/gcc-12.2.0/gaussian-09-D.01-wczn3gur5lpur3omlkzwa2l5ecyxp5ef/g09/l302.exe)
 NPDir=0 NMtPBC=     1 NCelOv=     1 NCel=       1 NClECP=     1 NCelD=      1
         NCelK=      1 NCelE2=     1 NClLst=     1 CellRange=     0.0.
 One-electron integrals computed using PRISM.
 NBasis=   194 RedAO= T EigKep=  1.40D-05  NBF=   194
 NBsUse=   194 1.00D-06 EigRej= -1.00D+00 NBFU=   194
 Precomputing XC quadrature grid using
 IXCGrd= 4 IRadAn=           5 IRanWt=          -1 IRanGd=           0 AccXCQ= 0.00D+00.
 Generated NRdTot=       0 NPtTot=           0 NUsed=           0 NTot=          32
 NSgBfM=   205   205   205   205   205 MxSgAt=     6 MxSgA2=     6.
 Leave Link  302 at Wed Jun 12 23:12:09 2024, MaxMem=  1073741824 cpu:         2.0
 (Enter /apps/z_install_tree/linux-rocky8-ivybridge/gcc-12.2.0/gaussian-09-D.01-wczn3gur5lpur3omlkzwa2l5ecyxp5ef/g09/l303.exe)
 DipDrv:  MaxL=1.
 Leave Link  303 at Wed Jun 12 23:12:09 2024, MaxMem=  1073741824 cpu:         0.4
 (Enter /apps/z_install_tree/linux-rocky8-ivybridge/gcc-12.2.0/gaussian-09-D.01-wczn3gur5lpur3omlkzwa2l5ecyxp5ef/g09/l401.exe)
 ExpMin= 4.38D-02 ExpMax= 1.06D+05 ExpMxC= 3.62D+03 IAcc=3 IRadAn=         5 AccDes= 0.00D+00
 Harris functional with IExCor=  402 and IRadAn=       5 diagonalized for initial guess.
 HarFok:  IExCor=  402 AccDes= 0.00D+00 IRadAn=         5 IDoV= 1 UseB2=F ITyADJ=14
 ICtDFT=  3500011 ScaDFX=  1.000000  1.000000  1.000000  1.000000
 FoFCou: FMM=F IPFlag=           0 FMFlag=      100000 FMFlg1=           0
         NFxFlg=           0 DoJE=T BraDBF=F KetDBF=T FulRan=T
         wScrn=  0.000000 ICntrl=     500 IOpCl=  0 I1Cent=   200000004 NGrid=           0
         NMat0=    1 NMatS0=      1 NMatT0=    0 NMatD0=    1 NMtDS0=    0 NMtDT0=    0
 Symmetry not used in FoFCou.
 Harris En= -1916.20725771633    
 JPrj=0 DoOrth=F DoCkMO=F.
 Leave Link  401 at Wed Jun 12 23:12:09 2024, MaxMem=  1073741824 cpu:         3.5
 (Enter /apps/z_install_tree/linux-rocky8-ivybridge/gcc-12.2.0/gaussian-09-D.01-wczn3gur5lpur3omlkzwa2l5ecyxp5ef/g09/l502.exe)
 Closed shell SCF:
 Using DIIS extrapolation, IDIIS=  1040.
 Two-electron integral symmetry not used.
 Keep R1 ints in memory in canonical form, NReq=183476736.
 IVT=      143898 IEndB=      143898 NGot=  1073741824 MDV=   894699857
 LenX=   894699857 LenY=   894656980
 Requested convergence on RMS density matrix=1.00D-08 within  96 cycles.
 Requested convergence on MAX density matrix=1.00D-06.
 Requested convergence on             energy=1.00D-06.
 No special actions if energy rises.
 FoFCou: FMM=F IPFlag=           0 FMFlag=           0 FMFlg1=           0
         NFxFlg=           0 DoJE=F BraDBF=F KetDBF=F FulRan=T
         wScrn=  0.000000 ICntrl=     600 IOpCl=  0 I1Cent=           0 NGrid=           0
         NMat0=    1 NMatS0=  18915 NMatT0=    0 NMatD0=    1 NMtDS0=    0 NMtDT0=    0
 Symmetry not used in FoFCou.

 Cycle   1  Pass 1  IDiag  1:
 E= -1916.21314286066    
 DIIS: error= 1.59D-02 at cycle   1 NSaved=   1.
 NSaved= 1 IEnMin= 1 EnMin= -1916.21314286066     IErMin= 1 ErrMin= 1.59D-02
 ErrMax= 1.59D-02  0.00D+00 EMaxC= 1.00D-01 BMatC= 2.79D-01 BMatP= 2.79D-01
 IDIUse=3 WtCom= 8.41D-01 WtEn= 1.59D-01
 Coeff-Com:  0.100D+01
 Coeff-En:   0.100D+01
 Coeff:      0.100D+01
 Gap=     0.028 Goal=   None    Shift=    0.000
 GapD=    0.028 DampG=0.250 DampE=0.500 DampFc=0.2500 IDamp=-1.
 Damping current iteration by 2.50D-01
 RMSDP=2.07D-02 MaxDP=9.75D-01              OVMax= 5.64D-01

 Cycle   2  Pass 1  IDiag  1:
 E= -1916.27254367242     Delta-E=       -0.059400811768 Rises=F Damp=T
 DIIS: error= 1.17D-02 at cycle   2 NSaved=   2.
 NSaved= 2 IEnMin= 2 EnMin= -1916.27254367242     IErMin= 2 ErrMin= 1.17D-02
 ErrMax= 1.17D-02  0.00D+00 EMaxC= 1.00D-01 BMatC= 9.63D-02 BMatP= 2.79D-01
 IDIUse=3 WtCom= 8.83D-01 WtEn= 1.17D-01
 Coeff-Com: -0.730D+00 0.173D+01
 Coeff-En:   0.000D+00 0.100D+01
 Coeff:     -0.645D+00 0.164D+01
 Gap=     0.046 Goal=   None    Shift=    0.000
 RMSDP=7.16D-03 MaxDP=5.93D-01 DE=-5.94D-02 OVMax= 5.86D-01

 Cycle   3  Pass 1  IDiag  1:
 E= -1916.24972074311     Delta-E=        0.022822929310 Rises=F Damp=F
 DIIS: error= 1.63D-02 at cycle   3 NSaved=   3.
 NSaved= 3 IEnMin= 2 EnMin= -1916.27254367242     IErMin= 2 ErrMin= 1.17D-02
 ErrMax= 1.63D-02  0.00D+00 EMaxC= 1.00D-01 BMatC= 1.26D-01 BMatP= 9.63D-02
 IDIUse=2 WtCom= 0.00D+00 WtEn= 1.00D+00
 Coeff-En:   0.000D+00 0.587D+00 0.413D+00
 Coeff:      0.000D+00 0.587D+00 0.413D+00
 Gap=     0.040 Goal=   None    Shift=    0.000
 RMSDP=1.18D-02 MaxDP=7.47D-01 DE= 2.28D-02 OVMax= 6.19D-01

 Cycle   4  Pass 1  IDiag  1:
 E= -1916.11128772508     Delta-E=        0.138433018036 Rises=F Damp=F
 DIIS: error= 2.66D-02 at cycle   4 NSaved=   4.
 NSaved= 4 IEnMin= 2 EnMin= -1916.27254367242     IErMin= 2 ErrMin= 1.17D-02
 ErrMax= 2.66D-02  0.00D+00 EMaxC= 1.00D-01 BMatC= 2.15D-01 BMatP= 9.63D-02
 IDIUse=2 WtCom= 0.00D+00 WtEn= 1.00D+00
 Coeff-En:   0.000D+00 0.000D+00 0.614D+00 0.386D+00
 Coeff:      0.000D+00 0.000D+00 0.614D+00 0.386D+00
 Gap=     0.067 Goal=   None    Shift=    0.000
 RMSDP=7.47D-03 MaxDP=3.34D-01 DE= 1.38D-01 OVMax= 3.67D-01

 Cycle   5  Pass 1  IDiag  1:
 E= -1916.37748131647     Delta-E=       -0.266193591394 Rises=F Damp=F
 DIIS: error= 5.05D-03 at cycle   5 NSaved=   5.
 NSaved= 5 IEnMin= 5 EnMin= -1916.37748131647     IErMin= 5 ErrMin= 5.05D-03
 ErrMax= 5.05D-03  0.00D+00 EMaxC= 1.00D-01 BMatC= 1.14D-02 BMatP= 9.63D-02
 IDIUse=3 WtCom= 9.50D-01 WtEn= 5.05D-02
 Coeff-Com: -0.269D+00 0.384D+00 0.239D+00-0.306D-01 0.677D+00
 Coeff-En:   0.000D+00 0.000D+00 0.868D-01 0.000D+00 0.913D+00
 Coeff:     -0.255D+00 0.365D+00 0.231D+00-0.291D-01 0.689D+00
 Gap=     0.095 Goal=   None    Shift=    0.000
 RMSDP=2.30D-03 MaxDP=9.82D-02 DE=-2.66D-01 OVMax= 3.33D-02

 Cycle   6  Pass 1  IDiag  1:
 E= -1916.38709509916     Delta-E=       -0.009613782689 Rises=F Damp=F
 DIIS: error= 1.69D-03 at cycle   6 NSaved=   6.
 NSaved= 6 IEnMin= 6 EnMin= -1916.38709509916     IErMin= 6 ErrMin= 1.69D-03
 ErrMax= 1.69D-03  0.00D+00 EMaxC= 1.00D-01 BMatC= 1.05D-03 BMatP= 1.14D-02
 IDIUse=3 WtCom= 9.83D-01 WtEn= 1.69D-02
 Coeff-Com: -0.174D+00 0.236D+00 0.112D+00-0.490D-01 0.437D+00 0.438D+00
 Coeff-En:   0.000D+00 0.000D+00 0.000D+00 0.000D+00 0.000D+00 0.100D+01
 Coeff:     -0.171D+00 0.232D+00 0.110D+00-0.481D-01 0.430D+00 0.448D+00
 Gap=     0.098 Goal=   None    Shift=    0.000
 RMSDP=8.14D-04 MaxDP=3.12D-02 DE=-9.61D-03 OVMax= 1.55D-02

 Cycle   7  Pass 1  IDiag  1:
 E= -1916.38824987842     Delta-E=       -0.001154779256 Rises=F Damp=F
 DIIS: error= 2.71D-04 at cycle   7 NSaved=   7.
 NSaved= 7 IEnMin= 7 EnMin= -1916.38824987842     IErMin= 7 ErrMin= 2.71D-04
 ErrMax= 2.71D-04  0.00D+00 EMaxC= 1.00D-01 BMatC= 3.55D-05 BMatP= 1.05D-03
 IDIUse=3 WtCom= 9.97D-01 WtEn= 2.71D-03
 Coeff-Com: -0.165D-01 0.221D-01 0.110D-01-0.104D-01 0.747D-01 0.168D+00
 Coeff-Com:  0.751D+00
 Coeff-En:   0.000D+00 0.000D+00 0.000D+00 0.000D+00 0.000D+00 0.000D+00
 Coeff-En:   0.100D+01
 Coeff:     -0.165D-01 0.220D-01 0.110D-01-0.104D-01 0.745D-01 0.167D+00
 Coeff:      0.752D+00
 Gap=     0.099 Goal=   None    Shift=    0.000
 RMSDP=1.65D-04 MaxDP=1.48D-02 DE=-1.15D-03 OVMax= 2.10D-03

 Cycle   8  Pass 1  IDiag  1:
 E= -1916.38827874732     Delta-E=       -0.000028868898 Rises=F Damp=F
 DIIS: error= 1.28D-04 at cycle   8 NSaved=   8.
 NSaved= 8 IEnMin= 8 EnMin= -1916.38827874732     IErMin= 8 ErrMin= 1.28D-04
 ErrMax= 1.28D-04  0.00D+00 EMaxC= 1.00D-01 BMatC= 5.33D-06 BMatP= 3.55D-05
 IDIUse=3 WtCom= 9.99D-01 WtEn= 1.28D-03
 Coeff-Com:  0.565D-02-0.799D-02-0.120D-02-0.180D-02 0.793D-02 0.515D-01
 Coeff-Com:  0.380D+00 0.566D+00
 Coeff-En:   0.000D+00 0.000D+00 0.000D+00 0.000D+00 0.000D+00 0.000D+00
 Coeff-En:   0.177D-01 0.982D+00
 Coeff:      0.564D-02-0.798D-02-0.120D-02-0.180D-02 0.792D-02 0.515D-01
 Coeff:      0.379D+00 0.567D+00
 Gap=     0.099 Goal=   None    Shift=    0.000
 RMSDP=1.04D-04 MaxDP=9.64D-03 DE=-2.89D-05 OVMax= 7.58D-04

 Cycle   9  Pass 1  IDiag  1:
 E= -1916.38828394431     Delta-E=       -0.000005196991 Rises=F Damp=F
 DIIS: error= 4.54D-05 at cycle   9 NSaved=   9.
 NSaved= 9 IEnMin= 9 EnMin= -1916.38828394431     IErMin= 9 ErrMin= 4.54D-05
 ErrMax= 4.54D-05  0.00D+00 EMaxC= 1.00D-01 BMatC= 5.93D-07 BMatP= 5.33D-06
 IDIUse=1 WtCom= 1.00D+00 WtEn= 0.00D+00
 Coeff-Com:  0.144D-02-0.197D-02 0.347D-05-0.947D-03 0.365D-04 0.834D-02
 Coeff-Com:  0.881D-01 0.239D+00 0.666D+00
 Coeff:      0.144D-02-0.197D-02 0.347D-05-0.947D-03 0.365D-04 0.834D-02
 Coeff:      0.881D-01 0.239D+00 0.666D+00
 Gap=     0.099 Goal=   None    Shift=    0.000
 RMSDP=2.66D-05 MaxDP=2.47D-03 DE=-5.20D-06 OVMax= 7.58D-04

 Cycle  10  Pass 1  IDiag  1:
 E= -1916.38828474089     Delta-E=       -0.000000796587 Rises=F Damp=F
 DIIS: error= 5.87D-06 at cycle  10 NSaved=  10.
 NSaved=10 IEnMin=10 EnMin= -1916.38828474089     IErMin=10 ErrMin= 5.87D-06
 ErrMax= 5.87D-06  0.00D+00 EMaxC= 1.00D-01 BMatC= 1.90D-08 BMatP= 5.93D-07
 IDIUse=1 WtCom= 1.00D+00 WtEn= 0.00D+00
 Coeff-Com:  0.275D-04-0.102D-04 0.906D-04-0.217D-03-0.820D-03-0.910D-03
 Coeff-Com: -0.312D-02 0.309D-01 0.243D+00 0.732D+00
 Coeff:      0.275D-04-0.102D-04 0.906D-04-0.217D-03-0.820D-03-0.910D-03
 Coeff:     -0.312D-02 0.309D-01 0.243D+00 0.732D+00
 Gap=     0.099 Goal=   None    Shift=    0.000
 RMSDP=3.95D-06 MaxDP=1.87D-04 DE=-7.97D-07 OVMax= 7.93D-05

 Cycle  11  Pass 1  IDiag  1:
 E= -1916.38828476212     Delta-E=       -0.000000021227 Rises=F Damp=F
 DIIS: error= 1.92D-06 at cycle  11 NSaved=  11.
 NSaved=11 IEnMin=11 EnMin= -1916.38828476212     IErMin=11 ErrMin= 1.92D-06
 ErrMax= 1.92D-06  0.00D+00 EMaxC= 1.00D-01 BMatC= 1.85D-09 BMatP= 1.90D-08
 IDIUse=1 WtCom= 1.00D+00 WtEn= 0.00D+00
 Coeff-Com:  0.632D-04-0.811D-04-0.448D-04 0.269D-04-0.572D-03-0.898D-03
 Coeff-Com: -0.735D-02-0.371D-02 0.574D-01 0.276D+00 0.679D+00
 Coeff:      0.632D-04-0.811D-04-0.448D-04 0.269D-04-0.572D-03-0.898D-03
 Coeff:     -0.735D-02-0.371D-02 0.574D-01 0.276D+00 0.679D+00
 Gap=     0.099 Goal=   None    Shift=    0.000
 RMSDP=1.83D-06 MaxDP=1.13D-04 DE=-2.12D-08 OVMax= 2.49D-05

 Cycle  12  Pass 1  IDiag  1:
 E= -1916.38828476446     Delta-E=       -0.000000002341 Rises=F Damp=F
 DIIS: error= 5.10D-07 at cycle  12 NSaved=  12.
 NSaved=12 IEnMin=12 EnMin= -1916.38828476446     IErMin=12 ErrMin= 5.10D-07
 ErrMax= 5.10D-07  0.00D+00 EMaxC= 1.00D-01 BMatC= 1.42D-10 BMatP= 1.85D-09
 IDIUse=1 WtCom= 1.00D+00 WtEn= 0.00D+00
 Coeff-Com: -0.210D-04 0.288D-04-0.158D-04 0.197D-04-0.462D-04-0.112D-03
 Coeff-Com: -0.206D-02-0.375D-02-0.142D-02 0.124D-01 0.175D+00 0.820D+00
 Coeff:     -0.210D-04 0.288D-04-0.158D-04 0.197D-04-0.462D-04-0.112D-03
 Coeff:     -0.206D-02-0.375D-02-0.142D-02 0.124D-01 0.175D+00 0.820D+00
 Gap=     0.099 Goal=   None    Shift=    0.000
 RMSDP=3.21D-07 MaxDP=1.22D-05 DE=-2.34D-09 OVMax= 1.14D-05

 Cycle  13  Pass 1  IDiag  1:
 E= -1916.38828476467     Delta-E=       -0.000000000208 Rises=F Damp=F
 DIIS: error= 1.86D-07 at cycle  13 NSaved=  13.
 NSaved=13 IEnMin=13 EnMin= -1916.38828476467     IErMin=13 ErrMin= 1.86D-07
 ErrMax= 1.86D-07  0.00D+00 EMaxC= 1.00D-01 BMatC= 1.80D-11 BMatP= 1.42D-10
 IDIUse=1 WtCom= 1.00D+00 WtEn= 0.00D+00
 Coeff-Com: -0.111D-04 0.150D-04-0.405D-05 0.439D-05 0.282D-04 0.352D-04
 Coeff-Com: -0.209D-04-0.353D-03-0.388D-02-0.194D-01-0.256D-01 0.215D+00
 Coeff-Com:  0.834D+00
 Coeff:     -0.111D-04 0.150D-04-0.405D-05 0.439D-05 0.282D-04 0.352D-04
 Coeff:     -0.209D-04-0.353D-03-0.388D-02-0.194D-01-0.256D-01 0.215D+00
 Coeff:      0.834D+00
 Gap=     0.099 Goal=   None    Shift=    0.000
 RMSDP=1.26D-07 MaxDP=6.90D-06 DE=-2.08D-10 OVMax= 3.76D-06

 Cycle  14  Pass 1  IDiag  1:
 E= -1916.38828476472     Delta-E=       -0.000000000046 Rises=F Damp=F
 DIIS: error= 4.60D-08 at cycle  14 NSaved=  14.
 NSaved=14 IEnMin=14 EnMin= -1916.38828476472     IErMin=14 ErrMin= 4.60D-08
 ErrMax= 4.60D-08  0.00D+00 EMaxC= 1.00D-01 BMatC= 1.36D-12 BMatP= 1.80D-11
 IDIUse=1 WtCom= 1.00D+00 WtEn= 0.00D+00
 Coeff-Com: -0.221D-05 0.281D-05-0.162D-05 0.119D-05 0.121D-04 0.210D-04
 Coeff-Com:  0.907D-04 0.926D-04-0.129D-02-0.781D-02-0.208D-01 0.344D-01
 Coeff-Com:  0.322D+00 0.673D+00
 Coeff:     -0.221D-05 0.281D-05-0.162D-05 0.119D-05 0.121D-04 0.210D-04
 Coeff:      0.907D-04 0.926D-04-0.129D-02-0.781D-02-0.208D-01 0.344D-01
 Coeff:      0.322D+00 0.673D+00
 Gap=     0.099 Goal=   None    Shift=    0.000
 RMSDP=5.77D-08 MaxDP=4.47D-06 DE=-4.64D-11 OVMax= 8.86D-07

 Cycle  15  Pass 1  IDiag  1:
 E= -1916.38828476470     Delta-E=        0.000000000020 Rises=F Damp=F
 DIIS: error= 9.78D-09 at cycle  15 NSaved=  15.
 NSaved=15 IEnMin=14 EnMin= -1916.38828476472     IErMin=15 ErrMin= 9.78D-09
 ErrMax= 9.78D-09  0.00D+00 EMaxC= 1.00D-01 BMatC= 6.78D-14 BMatP= 1.36D-12
 IDIUse=1 WtCom= 1.00D+00 WtEn= 0.00D+00
 Coeff-Com: -0.567D-06 0.716D-06 0.124D-06-0.698D-07 0.333D-05 0.520D-05
 Coeff-Com:  0.276D-04 0.432D-04-0.155D-03-0.116D-02-0.544D-02-0.769D-02
 Coeff-Com:  0.409D-01 0.249D+00 0.725D+00
 Coeff:     -0.567D-06 0.716D-06 0.124D-06-0.698D-07 0.333D-05 0.520D-05
 Coeff:      0.276D-04 0.432D-04-0.155D-03-0.116D-02-0.544D-02-0.769D-02
 Coeff:      0.409D-01 0.249D+00 0.725D+00
 Gap=     0.099 Goal=   None    Shift=    0.000
 RMSDP=1.22D-08 MaxDP=1.12D-06 DE= 2.05D-11 OVMax= 2.00D-07

 Cycle  16  Pass 1  IDiag  1:
 E= -1916.38828476474     Delta-E=       -0.000000000044 Rises=F Damp=F
 DIIS: error= 4.94D-09 at cycle  16 NSaved=  16.
 NSaved=16 IEnMin=16 EnMin= -1916.38828476474     IErMin=16 ErrMin= 4.94D-09
 ErrMax= 4.94D-09  0.00D+00 EMaxC= 1.00D-01 BMatC= 1.12D-14 BMatP= 6.78D-14
 IDIUse=1 WtCom= 1.00D+00 WtEn= 0.00D+00
 Coeff-Com: -0.136D-06 0.192D-06 0.175D-06-0.107D-06 0.458D-06 0.159D-06
 Coeff-Com:  0.189D-05-0.609D-06-0.158D-04-0.443D-05-0.323D-03-0.379D-02
 Coeff-Com: -0.546D-02 0.480D-01 0.274D+00 0.687D+00
 Coeff:     -0.136D-06 0.192D-06 0.175D-06-0.107D-06 0.458D-06 0.159D-06
 Coeff:      0.189D-05-0.609D-06-0.158D-04-0.443D-05-0.323D-03-0.379D-02
 Coeff:     -0.546D-02 0.480D-01 0.274D+00 0.687D+00
 Gap=     0.099 Goal=   None    Shift=    0.000
 RMSDP=2.25D-09 MaxDP=1.45D-07 DE=-4.37D-11 OVMax= 4.41D-08

 SCF Done:  E(RB3LYP) =  -1916.38828476     A.U. after   16 cycles
            NFock= 16  Conv=0.23D-08     -V/T= 2.0002
 KE= 1.916049475302D+03 PE=-5.612106723844D+03 EE= 1.250443323582D+03
 Leave Link  502 at Wed Jun 12 23:12:15 2024, MaxMem=  1073741824 cpu:        60.8
 (Enter /apps/z_install_tree/linux-rocky8-ivybridge/gcc-12.2.0/gaussian-09-D.01-wczn3gur5lpur3omlkzwa2l5ecyxp5ef/g09/l508.exe)
 QCSCF skips out because SCF is already converged.
 Leave Link  508 at Wed Jun 12 23:12:15 2024, MaxMem=  1073741824 cpu:         0.0
 (Enter /apps/z_install_tree/linux-rocky8-ivybridge/gcc-12.2.0/gaussian-09-D.01-wczn3gur5lpur3omlkzwa2l5ecyxp5ef/g09/l601.exe)
 Copying SCF densities to generalized density rwf, IOpCl= 0 IROHF=0.

 **********************************************************************

            Population analysis using the SCF density.

 **********************************************************************

 Alpha  occ. eigenvalues -- -101.61241-101.57557-101.56755-101.55243 -10.31458
 Alpha  occ. eigenvalues --  -10.29496  -9.57713  -9.48937  -9.48484  -9.46644
 Alpha  occ. eigenvalues --   -7.33965  -7.32747  -7.32382  -7.25387  -7.24929
 Alpha  occ. eigenvalues --   -7.24438  -7.24398  -7.23942  -7.23893  -7.23108
 Alpha  occ. eigenvalues --   -7.22126  -7.22106  -1.19923  -0.90671  -0.87425
 Alpha  occ. eigenvalues --   -0.82692  -0.72053  -0.64118  -0.61421  -0.56542
 Alpha  occ. eigenvalues --   -0.50795  -0.43924  -0.39314  -0.36326  -0.35094
 Alpha  occ. eigenvalues --   -0.34124  -0.33266  -0.31948  -0.29487  -0.23594
 Alpha virt. eigenvalues --   -0.13727  -0.05532  -0.01718  -0.00066   0.01824
 Alpha virt. eigenvalues --    0.02508   0.03319   0.04001   0.06371   0.06713
 Alpha virt. eigenvalues --    0.07338   0.07851   0.08150   0.09000   0.10677
 Alpha virt. eigenvalues --    0.11133   0.11219   0.11821   0.12396   0.12609
 Alpha virt. eigenvalues --    0.14016   0.14658   0.15275   0.16398   0.16995
 Alpha virt. eigenvalues --    0.18689   0.19394   0.20318   0.22165   0.23060
 Alpha virt. eigenvalues --    0.27943   0.29985   0.32763   0.36584   0.36806
 Alpha virt. eigenvalues --    0.38204   0.39221   0.39857   0.40470   0.41519
 Alpha virt. eigenvalues --    0.41940   0.42496   0.43258   0.43712   0.45368
 Alpha virt. eigenvalues --    0.45640   0.46536   0.46804   0.49104   0.49812
 Alpha virt. eigenvalues --    0.50333   0.51604   0.52691   0.53606   0.56494
 Alpha virt. eigenvalues --    0.57762   0.58539   0.62339   0.64294   0.67095
 Alpha virt. eigenvalues --    0.68707   0.70785   0.72393   0.75627   0.77360
 Alpha virt. eigenvalues --    0.80503   0.82605   0.87892   0.91367   0.97064
 Alpha virt. eigenvalues --    1.02346   1.06042   1.10383   1.12749   1.16609
 Alpha virt. eigenvalues --    1.20337   1.24121   1.25428   1.27765   1.31601
 Alpha virt. eigenvalues --    1.36005   1.39603   1.47844   1.62369   2.12533
 Alpha virt. eigenvalues --    2.16710   2.20851   2.22770   2.23966   2.25207
 Alpha virt. eigenvalues --    2.26438   2.27060   2.29061   2.30493   2.31297
 Alpha virt. eigenvalues --    2.32946   2.34957   2.36371   2.37499   2.38672
 Alpha virt. eigenvalues --    2.40910   2.41449   2.43147   2.43619   2.45900
 Alpha virt. eigenvalues --    2.48894   2.49612   2.51285   2.55651   2.56709
 Alpha virt. eigenvalues --    2.58482   2.61408   2.62306   2.69425   2.72438
 Alpha virt. eigenvalues --    2.76128   2.83709   2.88819   3.18648   3.20249
 Alpha virt. eigenvalues --    3.35656   3.37543   3.41344   3.44217   3.49583
 Alpha virt. eigenvalues --    3.51340   3.53227   3.54253   3.57678   3.69352
 Alpha virt. eigenvalues --    3.98033   4.68180   9.72780   9.74909   9.80276
 Alpha virt. eigenvalues --   10.08891  23.48706  24.20286  25.83236  25.85725
 Alpha virt. eigenvalues --   25.88289  25.95925  25.99902  26.07658  26.13955
 Alpha virt. eigenvalues --   26.49808  26.92852  27.13976  27.34163  28.39263
 Alpha virt. eigenvalues --  215.73022 215.74515 215.80330 216.27175
          Condensed to atoms (all electrons):
               1          2          3          4          5          6
     1  C    8.786021  -2.056202  -0.471085  -0.119260  -0.100670  -0.022376
     2  C   -2.056202   9.324379   0.414658  -0.009587  -0.088133  -0.781048
     3  Cl  -0.471085   0.414658  17.060750   0.070988  -0.001957  -0.041269
     4  Cl  -0.119260  -0.009587   0.070988  17.014906   0.095772   0.077862
     5  Cl  -0.100670  -0.088133  -0.001957   0.095772  17.238504  -0.143172
     6  Cl  -0.022376  -0.781048  -0.041269   0.077862  -0.143172  16.926399
 Mulliken charges:
               1
     1  C   -0.016427
     2  C   -0.804067
     3  Cl  -0.032085
     4  Cl  -0.130681
     5  Cl  -0.000344
     6  Cl   0.983604
 Sum of Mulliken charges =   0.00000
 Mulliken charges with hydrogens summed into heavy atoms:
               1
     1  C   -0.016427
     2  C   -0.804067
     3  Cl  -0.032085
     4  Cl  -0.130681
     5  Cl  -0.000344
     6  Cl   0.983604
 Electronic spatial extent (au):  <R**2>=        1389331.1294
 Charge=              0.0000 electrons
 Dipole moment (field-independent basis, Debye):
    X=              2.3399    Y=              2.4374    Z=              0.3833  Tot=              3.4004
 Quadrupole moment (field-independent basis, Debye-Ang):
   XX=            174.3854   YY=            116.4860   ZZ=            -38.5118
   XY=            207.5698   XZ=             95.9489   YZ=             92.3806
 Traceless Quadrupole moment (field-independent basis, Debye-Ang):
   XX=             90.2655   YY=             32.3661   ZZ=           -122.6317
   XY=            207.5698   XZ=             95.9489   YZ=             92.3806
 Octapole moment (field-independent basis, Debye-Ang**2):
  XXX=           8577.7269  YYY=           3108.1238  ZZZ=          -4916.9298  XYY=           8952.9601
  XXY=          12520.3375  XXZ=           6717.3973  XZZ=            579.4820  YZZ=           1148.0134
  YYZ=           4251.8275  XYZ=           7430.8974
 Hexadecapole moment (field-independent basis, Debye-Ang**3):
 XXXX=         269350.5108 YYYY=          -3750.4570 ZZZZ=        -343237.2699 XXXY=         624705.4056
 XXXZ=         335005.1577 YYYX=         269151.3101 YYYZ=         118055.9818 ZZZX=        -164481.9149
 ZZZY=         -95235.6136 XXYY=         526894.1971 XXZZ=          92230.9783 YYZZ=          71006.6188
 XXYZ=         443127.5542 YYXZ=         315271.0986 ZZXY=         149084.5226
 N-N= 5.292256401952D+02 E-N=-5.612106723394D+03  KE= 1.916049475302D+03
 No NMR shielding tensors so no spin-rotation constants.
 Leave Link  601 at Wed Jun 12 23:12:15 2024, MaxMem=  1073741824 cpu:         1.4
 (Enter /apps/z_install_tree/linux-rocky8-ivybridge/gcc-12.2.0/gaussian-09-D.01-wczn3gur5lpur3omlkzwa2l5ecyxp5ef/g09/l701.exe)
 Compute integral first derivatives.
 ... and contract with generalized density number  0.
 R6Disp: Adding Grimme-D3 dispersion energy 1st derivatives to the gradient.
 Leave Link  701 at Wed Jun 12 23:12:16 2024, MaxMem=  1073741824 cpu:         1.6
 (Enter /apps/z_install_tree/linux-rocky8-ivybridge/gcc-12.2.0/gaussian-09-D.01-wczn3gur5lpur3omlkzwa2l5ecyxp5ef/g09/l702.exe)
 L702 exits ... SP integral derivatives will be done elsewhere.
 Leave Link  702 at Wed Jun 12 23:12:16 2024, MaxMem=  1073741824 cpu:         0.2
 (Enter /apps/z_install_tree/linux-rocky8-ivybridge/gcc-12.2.0/gaussian-09-D.01-wczn3gur5lpur3omlkzwa2l5ecyxp5ef/g09/l703.exe)
 Compute integral first derivatives, UseDBF=F ICtDFT=           0.
 Integral derivatives from FoFJK, PRISM(SPDF).
 Calling FoFJK, ICntrl=      2127 FMM=F ISym2X=0 I1Cent= 0 IOpClX= 0 NMat=1 NMatS=1 NMatT=0.
 FoFJK:  IHMeth= 1 ICntrl=    2127 DoSepK=F KAlg= 0 I1Cent=   0 FoldK=F
 IRaf=         0 NMat=   1 IRICut=       1 DoRegI=T DoRafI=F ISym2E= 0.
 FoFCou: FMM=F IPFlag=           0 FMFlag=      100000 FMFlg1=         800
         NFxFlg=           0 DoJE=F BraDBF=F KetDBF=F FulRan=T
         wScrn=  0.000000 ICntrl=    2127 IOpCl=  0 I1Cent=           0 NGrid=           0
         NMat0=    1 NMatS0=      1 NMatT0=    0 NMatD0=    1 NMtDS0=    0 NMtDT0=    0
 Symmetry not used in FoFCou.
 Leave Link  703 at Wed Jun 12 23:12:17 2024, MaxMem=  1073741824 cpu:        14.9
 (Enter /apps/z_install_tree/linux-rocky8-ivybridge/gcc-12.2.0/gaussian-09-D.01-wczn3gur5lpur3omlkzwa2l5ecyxp5ef/g09/l716.exe)
 Dipole        = 9.20574513D-01 9.58949715D-01 1.50783035D-01
 -------------------------------------------------------------------
 Center     Atomic                   Forces (Hartrees/Bohr)
 Number     Number              X              Y              Z
 -------------------------------------------------------------------
      1        6           0.012859533   -0.095515674   -0.002913559
      2        6          -0.634202433   -1.507280992   -0.509524360
      3       17          -0.008107085    0.006773702    0.002117972
      4       17          -0.012601394   -0.001236678   -0.002947454
      5       17          -0.004493903   -0.054810433   -0.083894291
      6       17           0.646545282    1.652070076    0.597161693
 -------------------------------------------------------------------
 Cartesian Forces:  Max     1.652070076 RMS     0.598949407
 Leave Link  716 at Wed Jun 12 23:12:17 2024, MaxMem=  1073741824 cpu:         0.4
 (Enter /apps/z_install_tree/linux-rocky8-ivybridge/gcc-12.2.0/gaussian-09-D.01-wczn3gur5lpur3omlkzwa2l5ecyxp5ef/g09/l103.exe)

 GradGradGradGradGradGradGradGradGradGradGradGradGradGradGradGradGradGrad
 Berny optimization.
 FormGI is forming the generalized inverse of G from B-inverse, IUseBI=4.
 Internal  Forces:  Max     1.663510843 RMS     0.454423641
 Search for a local minimum.
 Step number   1 out of a maximum of   25
 All quantities printed in internal units (Hartrees-Bohrs-Radians)
 RMS Force = .45442D+00 SwitMx=.10000D-02 MixMth= 1
 Mixed Optimization -- RFO/linear search
 Second derivative matrix not updated -- first step.
 The second derivative matrix:
                          R1        R2        R3        R4        R5
           R1           0.29935
           R2           0.00000   0.27146
           R3           0.00000   0.00000   0.27287
           R4           0.00000   0.00000   0.00000   0.27162
           R5           0.00000   0.00000   0.00000   0.00000  10.60139
           R6           0.00000   0.00000   0.00000   0.00000   0.00000
           A1           0.00000   0.00000   0.00000   0.00000   0.00000
           A2           0.00000   0.00000   0.00000   0.00000   0.00000
           A3           0.00000   0.00000   0.00000   0.00000   0.00000
           A4           0.00000   0.00000   0.00000   0.00000   0.00000
           A5           0.00000   0.00000   0.00000   0.00000   0.00000
           D1           0.00000   0.00000   0.00000   0.00000   0.00000
           D2           0.00000   0.00000   0.00000   0.00000   0.00000
           D3           0.00000   0.00000   0.00000   0.00000   0.00000
           D4           0.00000   0.00000   0.00000   0.00000   0.00000
                          R6        A1        A2        A3        A4
           R6           0.13235
           A1           0.00000   0.25000
           A2           0.00000   0.00000   0.25000
           A3           0.00000   0.00000   0.00000   0.25000
           A4           0.00000   0.00000   0.00000   0.00000   0.25000
           A5           0.00000   0.00000   0.00000   0.00000   0.00000
           D1           0.00000   0.00000   0.00000   0.00000   0.00000
           D2           0.00000   0.00000   0.00000   0.00000   0.00000
           D3           0.00000   0.00000   0.00000   0.00000   0.00000
           D4           0.00000   0.00000   0.00000   0.00000   0.00000
                          A5        D1        D2        D3        D4
           A5           0.25000
           D1           0.00000   0.00442
           D2           0.00000   0.00000   0.00442
           D3           0.00000   0.00000   0.00000   0.00442
           D4           0.00000   0.00000   0.00000   0.00000   0.00442
 ITU=  0
     Eigenvalues ---    0.00442   0.06246   0.07484   0.18296   0.25000
     Eigenvalues ---    0.25000   0.25000   0.26392   0.27146   0.27287
     Eigenvalues ---    0.29935   9.62708
 RFO step:  Lambda=-3.86305482D-01 EMin= 4.41504737D-03
 Linear search not attempted -- first point.
 Maximum step size (   0.300) exceeded in Quadratic search.
    -- Step size scaled by   0.810
 Iteration  1 RMS(Cart)=  0.10056134 RMS(Int)=  0.01469657
 Iteration  2 RMS(Cart)=  0.01889774 RMS(Int)=  0.00497845
 Iteration  3 RMS(Cart)=  0.00042029 RMS(Int)=  0.00496081
 Iteration  4 RMS(Cart)=  0.00000445 RMS(Int)=  0.00496081
 Iteration  5 RMS(Cart)=  0.00000006 RMS(Int)=  0.00496081
 ITry= 1 IFail=0 DXMaxC= 3.20D-01 DCOld= 1.00D+10 DXMaxT= 3.00D-01 DXLimC= 3.00D+00 Rises=F
 Variable       Old X    -DE/DX   Delta X   Delta X   Delta X     New X
                                 (Linear)    (Quad)   (Total)
    R1        2.88094   0.02591   0.00000   0.03060   0.03060   2.91153
    R2        3.37744   0.00261   0.00000   0.00322   0.00322   3.38066
    R3        3.37425   0.00522   0.00000   0.00641   0.00641   3.38066
    R4        3.37708  -0.18713   0.00000   0.01783   0.02489   3.40197
    R5        2.06888   1.66351   0.00000   0.13389   0.13942   2.20830
    R6        4.42542   0.30167   0.00000   0.11870   0.11071   4.53613
    A1        1.91520   0.01864   0.00000   0.02743   0.02664   1.94184
    A2        1.95372   0.02912   0.00000   0.04062   0.03986   1.99358
    A3        1.89581  -0.00300   0.00000   0.00306   0.00174   1.89755
    A4        1.95694   0.18272   0.00000   0.00734  -0.00203   1.95491
    A5        1.93378   0.36373   0.00000   0.23217   0.22380   2.15759
    D1       -3.00258   0.10945   0.00000  -0.05862  -0.06211  -3.06469
    D2       -0.93496  -0.07987   0.00000   0.11105   0.11553  -0.81943
    D3        1.17437   0.08143   0.00000  -0.10780  -0.11228   1.06209
    D4       -3.04119  -0.10788   0.00000   0.06186   0.06535  -2.97583
         Item               Value     Threshold  Converged?
 Maximum Force            1.663511     0.000450     NO 
 RMS     Force            0.454424     0.000300     NO 
 Maximum Displacement     0.320420     0.001800     NO 
 RMS     Displacement     0.115131     0.001200     NO 
 Predicted change in Energy=-2.012688D-01
 Lowest energy point so far.  Saving SCF results.
 GradGradGradGradGradGradGradGradGradGradGradGradGradGradGradGradGradGrad

 Leave Link  103 at Wed Jun 12 23:12:17 2024, MaxMem=  1073741824 cpu:         0.6
 (Enter /apps/z_install_tree/linux-rocky8-ivybridge/gcc-12.2.0/gaussian-09-D.01-wczn3gur5lpur3omlkzwa2l5ecyxp5ef/g09/l202.exe)
                          Input orientation:                          
 ---------------------------------------------------------------------
 Center     Atomic      Atomic             Coordinates (Angstroms)
 Number     Number       Type             X           Y           Z
 ---------------------------------------------------------------------
      1          6           0       49.558319   35.917640   32.564646
      2          6           0       50.900021   36.365400   31.953781
      3         17           0       49.562405   36.101143   34.344171
      4         17           0       49.092466   34.238061   32.161664
      5         17           0       50.874230   36.309440   30.154590
      6         17           0       51.438559   37.363315   32.236149
 ---------------------------------------------------------------------
                    Distance matrix (angstroms):
                    1          2          3          4          5
     1  C    0.000000
     2  C    1.540717   0.000000
     3  Cl   1.788966   2.751911   0.000000
     4  Cl   1.788966   2.799293   2.907793   0.000000
     5  Cl   2.773716   1.800246   4.395095   3.390227   0.000000
     6  Cl   2.394408   1.168584   3.091406   3.908570   2.400418
                    6
     6  Cl   0.000000
 Symmetry turned off by external request.
 Stoichiometry    C2Cl4
 Framework group  C1[X(C2Cl4)]
 Deg. of freedom    12
 Full point group                 C1      NOp   1
 Rotational constants (GHZ):      2.0820591      1.3033724      0.8146817
 Leave Link  202 at Wed Jun 12 23:12:17 2024, MaxMem=  1073741824 cpu:         0.0
 (Enter /apps/z_install_tree/linux-rocky8-ivybridge/gcc-12.2.0/gaussian-09-D.01-wczn3gur5lpur3omlkzwa2l5ecyxp5ef/g09/l301.exe)
 Basis read from rwf:  (5D, 7F)
 No pseudopotential information found on rwf file.
   194 basis functions,   320 primitive gaussians,   206 cartesian basis functions
    40 alpha electrons       40 beta electrons
       nuclear repulsion energy       514.5862296241 Hartrees.
 IExCor=  402 DFT=T Ex+Corr=B3LYP ExCW=0 ScaHFX=  0.200000
 ScaDFX=  0.800000  0.720000  1.000000  0.810000 ScalE2=  1.000000  1.000000
 IRadAn=      5 IRanWt=     -1 IRanGd=            0 ICorTp=0 IEmpDi=131
 NAtoms=    6 NActive=    6 NUniq=    6 SFac= 1.00D+00 NAtFMM=   60 NAOKFM=F Big=F
 Integral buffers will be    131072 words long.
 Raffenetti 2 integral format.
 Two-electron integral symmetry is turned off.
 R6Disp:  Grimme-D3 Dispersion energy=       -0.0046417344 Hartrees.
 Nuclear repulsion after empirical dispersion term =      514.5815878897 Hartrees.
 No density basis found on file   724.
 Leave Link  301 at Wed Jun 12 23:12:17 2024, MaxMem=  1073741824 cpu:         0.7
 (Enter /apps/z_install_tree/linux-rocky8-ivybridge/gcc-12.2.0/gaussian-09-D.01-wczn3gur5lpur3omlkzwa2l5ecyxp5ef/g09/l302.exe)
 NPDir=0 NMtPBC=     1 NCelOv=     1 NCel=       1 NClECP=     1 NCelD=      1
         NCelK=      1 NCelE2=     1 NClLst=     1 CellRange=     0.0.
 One-electron integrals computed using PRISM.
 NBasis=   194 RedAO= T EigKep=  2.56D-05  NBF=   194
 NBsUse=   194 1.00D-06 EigRej= -1.00D+00 NBFU=   194
 Precomputing XC quadrature grid using
 IXCGrd= 4 IRadAn=           5 IRanWt=          -1 IRanGd=           0 AccXCQ= 0.00D+00.
 Generated NRdTot=       0 NPtTot=           0 NUsed=           0 NTot=          32
 NSgBfM=   204   204   204   204   204 MxSgAt=     6 MxSgA2=     6.
 Leave Link  302 at Wed Jun 12 23:12:17 2024, MaxMem=  1073741824 cpu:         2.0
 (Enter /apps/z_install_tree/linux-rocky8-ivybridge/gcc-12.2.0/gaussian-09-D.01-wczn3gur5lpur3omlkzwa2l5ecyxp5ef/g09/l303.exe)
 DipDrv:  MaxL=1.
 Leave Link  303 at Wed Jun 12 23:12:17 2024, MaxMem=  1073741824 cpu:         0.3
 (Enter /apps/z_install_tree/linux-rocky8-ivybridge/gcc-12.2.0/gaussian-09-D.01-wczn3gur5lpur3omlkzwa2l5ecyxp5ef/g09/l401.exe)
 Initial guess from the checkpoint file:  "tetrachloroethene.chk"
 B after Tr=    -0.302761    0.495567   -0.070069
         Rot=    0.999996    0.000244    0.000506    0.002814 Ang=   0.33 deg.
 Guess basis will be translated and rotated to current coordinates.
 JPrj=2 DoOrth=T DoCkMO=T.
 Generating alternative initial guess.
 ExpMin= 4.38D-02 ExpMax= 1.06D+05 ExpMxC= 3.62D+03 IAcc=2 IRadAn=         4 AccDes= 0.00D+00
 Harris functional with IExCor=  402 and IRadAn=       4 diagonalized for initial guess.
 HarFok:  IExCor=  402 AccDes= 0.00D+00 IRadAn=         4 IDoV= 1 UseB2=F ITyADJ=14
 ICtDFT=  3500011 ScaDFX=  1.000000  1.000000  1.000000  1.000000
 FoFCou: FMM=F IPFlag=           0 FMFlag=      100000 FMFlg1=           0
         NFxFlg=           0 DoJE=T BraDBF=F KetDBF=T FulRan=T
         wScrn=  0.000000 ICntrl=     500 IOpCl=  0 I1Cent=   200000004 NGrid=           0
         NMat0=    1 NMatS0=      1 NMatT0=    0 NMatD0=    1 NMtDS0=    0 NMtDT0=    0
 Symmetry not used in FoFCou.
 Harris En= -1916.42952853293    
 Leave Link  401 at Wed Jun 12 23:12:17 2024, MaxMem=  1073741824 cpu:         3.2
 (Enter /apps/z_install_tree/linux-rocky8-ivybridge/gcc-12.2.0/gaussian-09-D.01-wczn3gur5lpur3omlkzwa2l5ecyxp5ef/g09/l502.exe)
 Closed shell SCF:
 Using DIIS extrapolation, IDIIS=  1040.
 Two-electron integral symmetry not used.
 Keep R1 ints in memory in canonical form, NReq=183476736.
 IVT=      143898 IEndB=      143898 NGot=  1073741824 MDV=   894699857
 LenX=   894699857 LenY=   894656980
 Requested convergence on RMS density matrix=1.00D-08 within  96 cycles.
 Requested convergence on MAX density matrix=1.00D-06.
 Requested convergence on             energy=1.00D-06.
 No special actions if energy rises.
 FoFCou: FMM=F IPFlag=           0 FMFlag=           0 FMFlg1=           0
         NFxFlg=           0 DoJE=F BraDBF=F KetDBF=F FulRan=T
         wScrn=  0.000000 ICntrl=     600 IOpCl=  0 I1Cent=           0 NGrid=           0
         NMat0=    1 NMatS0=  18915 NMatT0=    0 NMatD0=    1 NMtDS0=    0 NMtDT0=    0
 Symmetry not used in FoFCou.

 Cycle   1  Pass 1  IDiag  1:
 E= -1916.60117214546    
 DIIS: error= 1.03D-02 at cycle   1 NSaved=   1.
 NSaved= 1 IEnMin= 1 EnMin= -1916.60117214546     IErMin= 1 ErrMin= 1.03D-02
 ErrMax= 1.03D-02  0.00D+00 EMaxC= 1.00D-01 BMatC= 4.97D-02 BMatP= 4.97D-02
 IDIUse=3 WtCom= 8.97D-01 WtEn= 1.03D-01
 Coeff-Com:  0.100D+01
 Coeff-En:   0.100D+01
 Coeff:      0.100D+01
 Recover alternate guess density for next cycle.
 RMSDP=1.04D-02 MaxDP=9.58D-01              OVMax= 0.00D+00

 Cycle   2  Pass 1  IDiag  1:
 E= -1916.52137215368     Delta-E=        0.079799991780 Rises=F Damp=F
 Switch densities from cycles 1 and 2 for lowest energy.
 DIIS: error= 1.70D-02 at cycle   2 NSaved=   2.
 NSaved= 2 IEnMin= 1 EnMin= -1916.60117214546     IErMin= 1 ErrMin= 1.03D-02
 ErrMax= 1.70D-02  0.00D+00 EMaxC= 1.00D+00 BMatC= 2.17D-01 BMatP= 4.97D-02
 IDIUse=1 WtCom= 1.00D+00 WtEn= 0.00D+00
 Coeff-Com:  0.875D+00 0.125D+00
 Coeff:      0.875D+00 0.125D+00
 Gap=     0.103 Goal=   None    Shift=    0.000
 RMSDP=8.99D-03 MaxDP=8.48D-01 DE= 7.98D-02 OVMax= 2.13D-01

 Cycle   3  Pass 1  IDiag  1:
 E= -1916.62534509819     Delta-E=       -0.103972944514 Rises=F Damp=F
 DIIS: error= 6.96D-03 at cycle   3 NSaved=   3.
 NSaved= 3 IEnMin= 3 EnMin= -1916.62534509819     IErMin= 3 ErrMin= 6.96D-03
 ErrMax= 6.96D-03  0.00D+00 EMaxC= 1.00D+00 BMatC= 1.97D-02 BMatP= 4.97D-02
 IDIUse=1 WtCom= 1.00D+00 WtEn= 0.00D+00
 Coeff-Com:  0.149D+00 0.152D+00 0.700D+00
 Coeff:      0.149D+00 0.152D+00 0.700D+00
 Gap=     0.117 Goal=   None    Shift=    0.000
 RMSDP=2.97D-03 MaxDP=2.07D-01 DE=-1.04D-01 OVMax= 9.81D-02

 Cycle   4  Pass 1  IDiag  1:
 E= -1916.63190439833     Delta-E=       -0.006559300144 Rises=F Damp=F
 DIIS: error= 5.52D-03 at cycle   4 NSaved=   4.
 NSaved= 4 IEnMin= 4 EnMin= -1916.63190439833     IErMin= 4 ErrMin= 5.52D-03
 ErrMax= 5.52D-03  0.00D+00 EMaxC= 1.00D+00 BMatC= 1.18D-02 BMatP= 1.97D-02
 IDIUse=1 WtCom= 1.00D+00 WtEn= 0.00D+00
 Coeff-Com:  0.178D-01 0.428D-01 0.456D+00 0.483D+00
 Coeff:      0.178D-01 0.428D-01 0.456D+00 0.483D+00
 Gap=     0.114 Goal=   None    Shift=    0.000
 RMSDP=1.62D-03 MaxDP=8.14D-02 DE=-6.56D-03 OVMax= 7.55D-02

 Cycle   5  Pass 1  IDiag  1:
 E= -1916.64162996005     Delta-E=       -0.009725561717 Rises=F Damp=F
 DIIS: error= 2.36D-03 at cycle   5 NSaved=   5.
 NSaved= 5 IEnMin= 5 EnMin= -1916.64162996005     IErMin= 5 ErrMin= 2.36D-03
 ErrMax= 2.36D-03  0.00D+00 EMaxC= 1.00D+00 BMatC= 2.49D-03 BMatP= 1.18D-02
 IDIUse=1 WtCom= 1.00D+00 WtEn= 0.00D+00
 Coeff-Com: -0.711D-02 0.989D-02 0.239D+00 0.355D+00 0.403D+00
 Coeff:     -0.711D-02 0.989D-02 0.239D+00 0.355D+00 0.403D+00
 Gap=     0.117 Goal=   None    Shift=    0.000
 RMSDP=4.77D-04 MaxDP=1.38D-02 DE=-9.73D-03 OVMax= 4.28D-02

 Cycle   6  Pass 1  IDiag  1:
 E= -1916.64378923286     Delta-E=       -0.002159272807 Rises=F Damp=F
 DIIS: error= 9.86D-04 at cycle   6 NSaved=   6.
 NSaved= 6 IEnMin= 6 EnMin= -1916.64378923286     IErMin= 6 ErrMin= 9.86D-04
 ErrMax= 9.86D-04  0.00D+00 EMaxC= 1.00D+00 BMatC= 3.26D-04 BMatP= 2.49D-03
 IDIUse=1 WtCom= 1.00D+00 WtEn= 0.00D+00
 Coeff-Com: -0.434D-02 0.186D-02 0.114D+00 0.191D+00 0.302D+00 0.395D+00
 Coeff:     -0.434D-02 0.186D-02 0.114D+00 0.191D+00 0.302D+00 0.395D+00
 Gap=     0.116 Goal=   None    Shift=    0.000
 RMSDP=2.72D-04 MaxDP=9.32D-03 DE=-2.16D-03 OVMax= 1.59D-02

 Cycle   7  Pass 1  IDiag  1:
 E= -1916.64418223943     Delta-E=       -0.000393006578 Rises=F Damp=F
 DIIS: error= 1.20D-04 at cycle   7 NSaved=   7.
 NSaved= 7 IEnMin= 7 EnMin= -1916.64418223943     IErMin= 7 ErrMin= 1.20D-04
 ErrMax= 1.20D-04  0.00D+00 EMaxC= 1.00D+00 BMatC= 1.00D-05 BMatP= 3.26D-04
 IDIUse=1 WtCom= 1.00D+00 WtEn= 0.00D+00
 Coeff-Com: -0.198D-02-0.407D-03 0.252D-01 0.529D-01 0.110D+00 0.199D+00
 Coeff-Com:  0.616D+00
 Coeff:     -0.198D-02-0.407D-03 0.252D-01 0.529D-01 0.110D+00 0.199D+00
 Coeff:      0.616D+00
 Gap=     0.116 Goal=   None    Shift=    0.000
 RMSDP=8.47D-05 MaxDP=5.13D-03 DE=-3.93D-04 OVMax= 1.75D-03

 Cycle   8  Pass 1  IDiag  1:
 E= -1916.64419227600     Delta-E=       -0.000010036569 Rises=F Damp=F
 DIIS: error= 3.50D-05 at cycle   8 NSaved=   8.
 NSaved= 8 IEnMin= 8 EnMin= -1916.64419227600     IErMin= 8 ErrMin= 3.50D-05
 ErrMax= 3.50D-05  0.00D+00 EMaxC= 1.00D+00 BMatC= 6.49D-07 BMatP= 1.00D-05
 IDIUse=1 WtCom= 1.00D+00 WtEn= 0.00D+00
 Coeff-Com: -0.398D-03-0.228D-03 0.781D-03 0.604D-02 0.231D-01 0.512D-01
 Coeff-Com:  0.264D+00 0.655D+00
 Coeff:     -0.398D-03-0.228D-03 0.781D-03 0.604D-02 0.231D-01 0.512D-01
 Coeff:      0.264D+00 0.655D+00
 Gap=     0.116 Goal=   None    Shift=    0.000
 RMSDP=1.77D-05 MaxDP=9.98D-04 DE=-1.00D-05 OVMax= 2.89D-04

 Cycle   9  Pass 1  IDiag  1:
 E= -1916.64419288103     Delta-E=       -0.000000605024 Rises=F Damp=F
 DIIS: error= 1.15D-05 at cycle   9 NSaved=   9.
 NSaved= 9 IEnMin= 9 EnMin= -1916.64419288103     IErMin= 9 ErrMin= 1.15D-05
 ErrMax= 1.15D-05  0.00D+00 EMaxC= 1.00D+00 BMatC= 5.76D-08 BMatP= 6.49D-07
 IDIUse=1 WtCom= 1.00D+00 WtEn= 0.00D+00
 Coeff-Com: -0.610D-04-0.373D-04-0.131D-02-0.697D-03 0.304D-02 0.100D-01
 Coeff-Com:  0.683D-01 0.296D+00 0.625D+00
 Coeff:     -0.610D-04-0.373D-04-0.131D-02-0.697D-03 0.304D-02 0.100D-01
 Coeff:      0.683D-01 0.296D+00 0.625D+00
 Gap=     0.116 Goal=   None    Shift=    0.000
 RMSDP=8.97D-06 MaxDP=5.89D-04 DE=-6.05D-07 OVMax= 7.67D-05

 Cycle  10  Pass 1  IDiag  1:
 E= -1916.64419293990     Delta-E=       -0.000000058871 Rises=F Damp=F
 DIIS: error= 2.93D-06 at cycle  10 NSaved=  10.
 NSaved=10 IEnMin=10 EnMin= -1916.64419293990     IErMin=10 ErrMin= 2.93D-06
 ErrMax= 2.93D-06  0.00D+00 EMaxC= 1.00D+00 BMatC= 5.26D-09 BMatP= 5.76D-08
 IDIUse=1 WtCom= 1.00D+00 WtEn= 0.00D+00
 Coeff-Com:  0.175D-04-0.988D-05-0.630D-03-0.777D-03-0.676D-03 0.212D-03
 Coeff-Com:  0.461D-02 0.753D-01 0.289D+00 0.633D+00
 Coeff:      0.175D-04-0.988D-05-0.630D-03-0.777D-03-0.676D-03 0.212D-03
 Coeff:      0.461D-02 0.753D-01 0.289D+00 0.633D+00
 Gap=     0.116 Goal=   None    Shift=    0.000
 RMSDP=1.66D-06 MaxDP=6.21D-05 DE=-5.89D-08 OVMax= 4.78D-05

 Cycle  11  Pass 1  IDiag  1:
 E= -1916.64419294604     Delta-E=       -0.000000006140 Rises=F Damp=F
 DIIS: error= 7.78D-07 at cycle  11 NSaved=  11.
 NSaved=11 IEnMin=11 EnMin= -1916.64419294604     IErMin=11 ErrMin= 7.78D-07
 ErrMax= 7.78D-07  0.00D+00 EMaxC= 1.00D+00 BMatC= 2.93D-10 BMatP= 5.26D-09
 IDIUse=1 WtCom= 1.00D+00 WtEn= 0.00D+00
 Coeff-Com:  0.996D-05-0.829D-06-0.173D-03-0.294D-03-0.476D-03-0.877D-03
 Coeff-Com: -0.295D-02 0.829D-02 0.642D-01 0.238D+00 0.695D+00
 Coeff:      0.996D-05-0.829D-06-0.173D-03-0.294D-03-0.476D-03-0.877D-03
 Coeff:     -0.295D-02 0.829D-02 0.642D-01 0.238D+00 0.695D+00
 Gap=     0.116 Goal=   None    Shift=    0.000
 RMSDP=4.45D-07 MaxDP=2.10D-05 DE=-6.14D-09 OVMax= 1.11D-05

 Cycle  12  Pass 1  IDiag  1:
 E= -1916.64419294644     Delta-E=       -0.000000000402 Rises=F Damp=F
 DIIS: error= 2.60D-07 at cycle  12 NSaved=  12.
 NSaved=12 IEnMin=12 EnMin= -1916.64419294644     IErMin=12 ErrMin= 2.60D-07
 ErrMax= 2.60D-07  0.00D+00 EMaxC= 1.00D+00 BMatC= 2.48D-11 BMatP= 2.93D-10
 IDIUse=1 WtCom= 1.00D+00 WtEn= 0.00D+00
 Coeff-Com:  0.137D-05 0.175D-05-0.522D-05-0.376D-04-0.118D-03-0.428D-03
 Coeff-Com: -0.165D-02-0.471D-02-0.408D-02 0.346D-01 0.266D+00 0.711D+00
 Coeff:      0.137D-05 0.175D-05-0.522D-05-0.376D-04-0.118D-03-0.428D-03
 Coeff:     -0.165D-02-0.471D-02-0.408D-02 0.346D-01 0.266D+00 0.711D+00
 Gap=     0.116 Goal=   None    Shift=    0.000
 RMSDP=1.43D-07 MaxDP=6.20D-06 DE=-4.02D-10 OVMax= 2.39D-06

 Cycle  13  Pass 1  IDiag  1:
 E= -1916.64419294645     Delta-E=       -0.000000000011 Rises=F Damp=F
 DIIS: error= 4.67D-08 at cycle  13 NSaved=  13.
 NSaved=13 IEnMin=13 EnMin= -1916.64419294645     IErMin=13 ErrMin= 4.67D-08
 ErrMax= 4.67D-08  0.00D+00 EMaxC= 1.00D+00 BMatC= 1.26D-12 BMatP= 2.48D-11
 IDIUse=1 WtCom= 1.00D+00 WtEn= 0.00D+00
 Coeff-Com: -0.817D-07 0.376D-06 0.107D-04 0.931D-05-0.485D-05-0.888D-04
 Coeff-Com: -0.317D-03-0.234D-02-0.608D-02-0.448D-02 0.418D-01 0.232D+00
 Coeff-Com:  0.740D+00
 Coeff:     -0.817D-07 0.376D-06 0.107D-04 0.931D-05-0.485D-05-0.888D-04
 Coeff:     -0.317D-03-0.234D-02-0.608D-02-0.448D-02 0.418D-01 0.232D+00
 Coeff:      0.740D+00
 Gap=     0.116 Goal=   None    Shift=    0.000
 RMSDP=2.52D-08 MaxDP=9.37D-07 DE=-1.09D-11 OVMax= 6.96D-07

 Cycle  14  Pass 1  IDiag  1:
 E= -1916.64419294643     Delta-E=        0.000000000019 Rises=F Damp=F
 DIIS: error= 1.41D-08 at cycle  14 NSaved=  14.
 NSaved=14 IEnMin=13 EnMin= -1916.64419294645     IErMin=14 ErrMin= 1.41D-08
 ErrMax= 1.41D-08  0.00D+00 EMaxC= 1.00D+00 BMatC= 8.33D-14 BMatP= 1.26D-12
 IDIUse=1 WtCom= 1.00D+00 WtEn= 0.00D+00
 Coeff-Com: -0.855D-07-0.339D-07 0.364D-05 0.522D-05 0.652D-05 0.327D-05
 Coeff-Com:  0.316D-04-0.395D-03-0.140D-02-0.361D-02-0.506D-02 0.177D-01
 Coeff-Com:  0.224D+00 0.769D+00
 Coeff:     -0.855D-07-0.339D-07 0.364D-05 0.522D-05 0.652D-05 0.327D-05
 Coeff:      0.316D-04-0.395D-03-0.140D-02-0.361D-02-0.506D-02 0.177D-01
 Coeff:      0.224D+00 0.769D+00
 Gap=     0.116 Goal=   None    Shift=    0.000
 RMSDP=8.06D-09 MaxDP=4.27D-07 DE= 1.86D-11 OVMax= 2.00D-07

 SCF Done:  E(RB3LYP) =  -1916.64419295     A.U. after   14 cycles
            NFock= 14  Conv=0.81D-08     -V/T= 2.0009
 KE= 1.914888551148D+03 PE=-5.582379089802D+03 EE= 1.236264757818D+03
 Leave Link  502 at Wed Jun 12 23:12:22 2024, MaxMem=  1073741824 cpu:        54.3
 (Enter /apps/z_install_tree/linux-rocky8-ivybridge/gcc-12.2.0/gaussian-09-D.01-wczn3gur5lpur3omlkzwa2l5ecyxp5ef/g09/l508.exe)
 QCSCF skips out because SCF is already converged.
 Leave Link  508 at Wed Jun 12 23:12:23 2024, MaxMem=  1073741824 cpu:         0.0
 (Enter /apps/z_install_tree/linux-rocky8-ivybridge/gcc-12.2.0/gaussian-09-D.01-wczn3gur5lpur3omlkzwa2l5ecyxp5ef/g09/l701.exe)
 Compute integral first derivatives.
 ... and contract with generalized density number  0.
 R6Disp: Adding Grimme-D3 dispersion energy 1st derivatives to the gradient.
 Leave Link  701 at Wed Jun 12 23:12:23 2024, MaxMem=  1073741824 cpu:         1.6
 (Enter /apps/z_install_tree/linux-rocky8-ivybridge/gcc-12.2.0/gaussian-09-D.01-wczn3gur5lpur3omlkzwa2l5ecyxp5ef/g09/l702.exe)
 L702 exits ... SP integral derivatives will be done elsewhere.
 Leave Link  702 at Wed Jun 12 23:12:23 2024, MaxMem=  1073741824 cpu:         0.2
 (Enter /apps/z_install_tree/linux-rocky8-ivybridge/gcc-12.2.0/gaussian-09-D.01-wczn3gur5lpur3omlkzwa2l5ecyxp5ef/g09/l703.exe)
 Compute integral first derivatives, UseDBF=F ICtDFT=           0.
 Integral derivatives from FoFJK, PRISM(SPDF).
 Calling FoFJK, ICntrl=      2127 FMM=F ISym2X=0 I1Cent= 0 IOpClX= 0 NMat=1 NMatS=1 NMatT=0.
 FoFJK:  IHMeth= 1 ICntrl=    2127 DoSepK=F KAlg= 0 I1Cent=   0 FoldK=F
 IRaf=         0 NMat=   1 IRICut=       1 DoRegI=T DoRafI=F ISym2E= 0.
 FoFCou: FMM=F IPFlag=           0 FMFlag=      100000 FMFlg1=         800
         NFxFlg=           0 DoJE=F BraDBF=F KetDBF=F FulRan=T
         wScrn=  0.000000 ICntrl=    2127 IOpCl=  0 I1Cent=           0 NGrid=           0
         NMat0=    1 NMatS0=      1 NMatT0=    0 NMatD0=    1 NMtDS0=    0 NMtDT0=    0
 Symmetry not used in FoFCou.
 Leave Link  703 at Wed Jun 12 23:12:24 2024, MaxMem=  1073741824 cpu:        14.7
 (Enter /apps/z_install_tree/linux-rocky8-ivybridge/gcc-12.2.0/gaussian-09-D.01-wczn3gur5lpur3omlkzwa2l5ecyxp5ef/g09/l716.exe)
 Dipole        = 9.09205763D-01 8.71788562D-01 1.20215005D-01
 -------------------------------------------------------------------
 Center     Atomic                   Forces (Hartrees/Bohr)
 Number     Number              X              Y              Z
 -------------------------------------------------------------------
      1        6           0.056819120   -0.043881797   -0.005885617
      2        6          -0.638279019   -0.967650682   -0.284948893
      3       17          -0.004298892    0.007713442   -0.003747926
      4       17          -0.006637213    0.009605733   -0.004233128
      5       17          -0.011843842   -0.047567026   -0.059353868
      6       17           0.604239846    1.041780330    0.358169431
 -------------------------------------------------------------------
 Cartesian Forces:  Max     1.041780330 RMS     0.409267769
 Leave Link  716 at Wed Jun 12 23:12:24 2024, MaxMem=  1073741824 cpu:         0.3
 (Enter /apps/z_install_tree/linux-rocky8-ivybridge/gcc-12.2.0/gaussian-09-D.01-wczn3gur5lpur3omlkzwa2l5ecyxp5ef/g09/l103.exe)

 GradGradGradGradGradGradGradGradGradGradGradGradGradGradGradGradGradGrad
 Berny optimization.
 Using GEDIIS/GDIIS optimizer.
 FormGI is forming the generalized inverse of G from B-inverse, IUseBI=4.
 Internal  Forces:  Max     1.113282654 RMS     0.301656999
 Search for a local minimum.
 Step number   2 out of a maximum of   25
 All quantities printed in internal units (Hartrees-Bohrs-Radians)
 RMS Force = .30166D+00 SwitMx=.10000D-02 MixMth= 1
 Mixed Optimization -- RFO/linear search
 Update second derivatives using D2CorX and points    1    2
 DE= -2.56D-01 DEPred=-2.01D-01 R= 1.27D+00
 TightC=F SS=  1.41D+00  RLast= 3.46D-01 DXNew= 5.0454D-01 1.0383D+00
 Trust test= 1.27D+00 RLast= 3.46D-01 DXMaxT set to 5.05D-01
 The second derivative matrix:
                          R1        R2        R3        R4        R5
           R1           0.33669
           R2           0.00326   0.27175
           R3           0.00678   0.00059   0.27410
           R4          -0.04046  -0.00354  -0.00735   0.31421
           R5           0.26498   0.02266   0.04754  -0.39250   3.55361
           R6           0.05726   0.00500   0.01039  -0.06209   0.40246
           A1           0.00666   0.00058   0.00121  -0.00759   0.01549
           A2           0.00654   0.00057   0.00118  -0.00771  -0.00640
           A3          -0.00478  -0.00042  -0.00087   0.00506  -0.04408
           A4           0.01748   0.00153   0.00317  -0.01858   0.15430
           A5           0.09873   0.00861   0.01790  -0.10933   0.50000
           D1           0.03394   0.00297   0.00616  -0.03613   0.29516
           D2          -0.03109  -0.00272  -0.00565   0.03308  -0.27202
           D3           0.03250   0.00284   0.00590  -0.03458   0.28414
           D4          -0.03253  -0.00284  -0.00591   0.03463  -0.28304
                          R6        A1        A2        A3        A4
           R6           0.22016
           A1           0.01020   0.25107
           A2           0.01001   0.00098   0.25083
           A3          -0.00734  -0.00089  -0.00090   0.25060
           A4           0.02681   0.00322   0.00324  -0.00220   0.25808
           A5           0.15130   0.01689   0.01611  -0.01287   0.04689
           D1           0.05207   0.00625   0.00627  -0.00428   0.01570
           D2          -0.04770  -0.00573  -0.00575   0.00392  -0.01438
           D3           0.04986   0.00599   0.00601  -0.00410   0.01503
           D4          -0.04990  -0.00599  -0.00601   0.00411  -0.01505
                          A5        D1        D2        D3        D4
           A5           0.50650
           D1           0.09095   0.03493
           D2          -0.08335  -0.02795   0.03001
           D3           0.08713   0.02922  -0.02675   0.03239
           D4          -0.08717  -0.02925   0.02678  -0.02800   0.03244
 ITU=  1  0
 Use linear search instead of GDIIS.
 Linear search step of   0.587 exceeds DXMaxT=   0.505 but not scaled.
 Quartic linear search produced a step of  2.00000.
 Iteration  1 RMS(Cart)=  0.12843807 RMS(Int)=  0.07369284
 Iteration  2 RMS(Cart)=  0.08326929 RMS(Int)=  0.03442680
 Iteration  3 RMS(Cart)=  0.02897019 RMS(Int)=  0.02963412
 Iteration  4 RMS(Cart)=  0.00088103 RMS(Int)=  0.02962288
 Iteration  5 RMS(Cart)=  0.00003245 RMS(Int)=  0.02962287
 Iteration  6 RMS(Cart)=  0.00000168 RMS(Int)=  0.02962287
 Iteration  7 RMS(Cart)=  0.00000009 RMS(Int)=  0.02962287
 ITry= 1 IFail=0 DXMaxC= 5.54D-01 DCOld= 1.00D+10 DXMaxT= 5.05D-01 DXLimC= 3.00D+00 Rises=F
 Variable       Old X    -DE/DX   Delta X   Delta X   Delta X     New X
                                 (Linear)    (Quad)   (Total)
    R1        2.91153  -0.03773   0.06119   0.00000   0.06119   2.97273
    R2        3.38066  -0.00295   0.00643   0.00000   0.00643   3.38709
    R3        3.38066  -0.00634   0.01282   0.00000   0.01282   3.39348
    R4        3.40197  -0.11933   0.04978   0.00000   0.08424   3.48621
    R5        2.20830   1.11328   0.27884   0.00000   0.30678   2.51509
    R6        4.53613   0.20404   0.22142   0.00000   0.18106   4.71719
    A1        1.94184   0.00694   0.05328   0.00000   0.04808   1.98992
    A2        1.99358   0.01738   0.07973   0.00000   0.07475   2.06833
    A3        1.89755   0.00504   0.00348   0.00000  -0.00395   1.89359
    A4        1.95491   0.15326  -0.00405   0.00000  -0.07423   1.88068
    A5        2.15759   0.19326   0.44761   0.00000   0.38354   2.54112
    D1       -3.06469   0.05220  -0.12422   0.00000  -0.13184   3.08665
    D2       -0.81943  -0.02745   0.23106   0.00000   0.24353  -0.57590
    D3        1.06209   0.02663  -0.22456   0.00000  -0.23704   0.82505
    D4       -2.97583  -0.05302   0.13071   0.00000   0.13833  -2.83750
         Item               Value     Threshold  Converged?
 Maximum Force            1.113283     0.000450     NO 
 RMS     Force            0.301657     0.000300     NO 
 Maximum Displacement     0.553531     0.001800     NO 
 RMS     Displacement     0.218933     0.001200     NO 
 Predicted change in Energy=-1.981025D-01
 Lowest energy point so far.  Saving SCF results.
 GradGradGradGradGradGradGradGradGradGradGradGradGradGradGradGradGradGrad

 Leave Link  103 at Wed Jun 12 23:12:24 2024, MaxMem=  1073741824 cpu:         0.7
 (Enter /apps/z_install_tree/linux-rocky8-ivybridge/gcc-12.2.0/gaussian-09-D.01-wczn3gur5lpur3omlkzwa2l5ecyxp5ef/g09/l202.exe)
                          Input orientation:                          
 ---------------------------------------------------------------------
 Center     Atomic      Atomic             Coordinates (Angstroms)
 Number     Number       Type             X           Y           Z
 ---------------------------------------------------------------------
      1          6           0       49.531590   35.873728   32.607757
      2          6           0       50.829494   36.519965   31.997461
      3         17           0       49.426198   35.995631   34.392870
      4         17           0       49.099513   34.199024   32.124645
      5         17           0       50.807731   36.214994   30.178148
      6         17           0       51.731475   37.491657   32.114119
 ---------------------------------------------------------------------
                    Distance matrix (angstroms):
                    1          2          3          4          5
     1  C    0.000000
     2  C    1.573099   0.000000
     3  Cl   1.792371   2.825270   0.000000
     4  Cl   1.795751   2.897547   2.911935   0.000000
     5  Cl   2.765502   1.844825   4.440792   3.281920   0.000000
     6  Cl   2.775044   1.330926   3.570028   4.215302   2.496229
                    6
     6  Cl   0.000000
 Symmetry turned off by external request.
 Stoichiometry    C2Cl4
 Framework group  C1[X(C2Cl4)]
 Deg. of freedom    12
 Full point group                 C1      NOp   1
 Rotational constants (GHZ):      1.9595799      1.1853782      0.7520258
 Leave Link  202 at Wed Jun 12 23:12:24 2024, MaxMem=  1073741824 cpu:         0.1
 (Enter /apps/z_install_tree/linux-rocky8-ivybridge/gcc-12.2.0/gaussian-09-D.01-wczn3gur5lpur3omlkzwa2l5ecyxp5ef/g09/l301.exe)
 Basis read from rwf:  (5D, 7F)
 No pseudopotential information found on rwf file.
   194 basis functions,   320 primitive gaussians,   206 cartesian basis functions
    40 alpha electrons       40 beta electrons
       nuclear repulsion energy       492.7355065550 Hartrees.
 IExCor=  402 DFT=T Ex+Corr=B3LYP ExCW=0 ScaHFX=  0.200000
 ScaDFX=  0.800000  0.720000  1.000000  0.810000 ScalE2=  1.000000  1.000000
 IRadAn=      5 IRanWt=     -1 IRanGd=            0 ICorTp=0 IEmpDi=131
 NAtoms=    6 NActive=    6 NUniq=    6 SFac= 1.00D+00 NAtFMM=   60 NAOKFM=F Big=F
 Integral buffers will be    131072 words long.
 Raffenetti 2 integral format.
 Two-electron integral symmetry is turned off.
 R6Disp:  Grimme-D3 Dispersion energy=       -0.0051578723 Hartrees.
 Nuclear repulsion after empirical dispersion term =      492.7303486828 Hartrees.
 No density basis found on file   724.
 Leave Link  301 at Wed Jun 12 23:12:24 2024, MaxMem=  1073741824 cpu:         0.7
 (Enter /apps/z_install_tree/linux-rocky8-ivybridge/gcc-12.2.0/gaussian-09-D.01-wczn3gur5lpur3omlkzwa2l5ecyxp5ef/g09/l302.exe)
 NPDir=0 NMtPBC=     1 NCelOv=     1 NCel=       1 NClECP=     1 NCelD=      1
         NCelK=      1 NCelE2=     1 NClLst=     1 CellRange=     0.0.
 One-electron integrals computed using PRISM.
 NBasis=   194 RedAO= T EigKep=  4.23D-05  NBF=   194
 NBsUse=   194 1.00D-06 EigRej= -1.00D+00 NBFU=   194
 Precomputing XC quadrature grid using
 IXCGrd= 4 IRadAn=           5 IRanWt=          -1 IRanGd=           0 AccXCQ= 0.00D+00.
 Generated NRdTot=       0 NPtTot=           0 NUsed=           0 NTot=          32
 NSgBfM=   203   203   203   203   203 MxSgAt=     6 MxSgA2=     6.
 Leave Link  302 at Wed Jun 12 23:12:24 2024, MaxMem=  1073741824 cpu:         2.0
 (Enter /apps/z_install_tree/linux-rocky8-ivybridge/gcc-12.2.0/gaussian-09-D.01-wczn3gur5lpur3omlkzwa2l5ecyxp5ef/g09/l303.exe)
 DipDrv:  MaxL=1.
 Leave Link  303 at Wed Jun 12 23:12:24 2024, MaxMem=  1073741824 cpu:         0.3
 (Enter /apps/z_install_tree/linux-rocky8-ivybridge/gcc-12.2.0/gaussian-09-D.01-wczn3gur5lpur3omlkzwa2l5ecyxp5ef/g09/l401.exe)
 Initial guess from the checkpoint file:  "tetrachloroethene.chk"
 B after Tr=    -0.417336    0.664119   -0.101447
         Rot=    0.999991    0.000812    0.000993    0.004161 Ang=   0.50 deg.
 Guess basis will be translated and rotated to current coordinates.
 JPrj=2 DoOrth=T DoCkMO=T.
 Generating alternative initial guess.
 ExpMin= 4.38D-02 ExpMax= 1.06D+05 ExpMxC= 3.62D+03 IAcc=2 IRadAn=         4 AccDes= 0.00D+00
 Harris functional with IExCor=  402 and IRadAn=       4 diagonalized for initial guess.
 HarFok:  IExCor=  402 AccDes= 0.00D+00 IRadAn=         4 IDoV= 1 UseB2=F ITyADJ=14
 ICtDFT=  3500011 ScaDFX=  1.000000  1.000000  1.000000  1.000000
 FoFCou: FMM=F IPFlag=           0 FMFlag=      100000 FMFlg1=           0
         NFxFlg=           0 DoJE=T BraDBF=F KetDBF=T FulRan=T
         wScrn=  0.000000 ICntrl=     500 IOpCl=  0 I1Cent=   200000004 NGrid=           0
         NMat0=    1 NMatS0=      1 NMatT0=    0 NMatD0=    1 NMtDS0=    0 NMtDT0=    0
 Symmetry not used in FoFCou.
 Harris En= -1916.64612238452    
 Leave Link  401 at Wed Jun 12 23:12:24 2024, MaxMem=  1073741824 cpu:         3.2
 (Enter /apps/z_install_tree/linux-rocky8-ivybridge/gcc-12.2.0/gaussian-09-D.01-wczn3gur5lpur3omlkzwa2l5ecyxp5ef/g09/l502.exe)
 Closed shell SCF:
 Using DIIS extrapolation, IDIIS=  1040.
 Two-electron integral symmetry not used.
 Keep R1 ints in memory in canonical form, NReq=183476736.
 IVT=      143898 IEndB=      143898 NGot=  1073741824 MDV=   894699857
 LenX=   894699857 LenY=   894656980
 Requested convergence on RMS density matrix=1.00D-08 within  96 cycles.
 Requested convergence on MAX density matrix=1.00D-06.
 Requested convergence on             energy=1.00D-06.
 No special actions if energy rises.
 FoFCou: FMM=F IPFlag=           0 FMFlag=           0 FMFlg1=           0
         NFxFlg=           0 DoJE=F BraDBF=F KetDBF=F FulRan=T
         wScrn=  0.000000 ICntrl=     600 IOpCl=  0 I1Cent=           0 NGrid=           0
         NMat0=    1 NMatS0=  18915 NMatT0=    0 NMatD0=    1 NMtDS0=    0 NMtDT0=    0
 Symmetry not used in FoFCou.

 Cycle   1  Pass 1  IDiag  1:
 E= -1916.78234972820    
 DIIS: error= 1.96D-02 at cycle   1 NSaved=   1.
 NSaved= 1 IEnMin= 1 EnMin= -1916.78234972820     IErMin= 1 ErrMin= 1.96D-02
 ErrMax= 1.96D-02  0.00D+00 EMaxC= 1.00D-01 BMatC= 1.24D-01 BMatP= 1.24D-01
 IDIUse=3 WtCom= 8.04D-01 WtEn= 1.96D-01
 Coeff-Com:  0.100D+01
 Coeff-En:   0.100D+01
 Coeff:      0.100D+01
 Recover alternate guess density for next cycle.
 RMSDP=7.21D-03 MaxDP=2.33D-01              OVMax= 0.00D+00

 Cycle   2  Pass 1  IDiag  1:
 E= -1916.83164870710     Delta-E=       -0.049298978903 Rises=F Damp=F
 DIIS: error= 1.42D-02 at cycle   2 NSaved=   2.
 NSaved= 2 IEnMin= 2 EnMin= -1916.83164870710     IErMin= 2 ErrMin= 1.42D-02
 ErrMax= 1.42D-02  0.00D+00 EMaxC= 1.00D-01 BMatC= 1.54D-01 BMatP= 1.24D-01
 IDIUse=2 WtCom= 0.00D+00 WtEn= 1.00D+00
 Coeff-En:   0.000D+00 0.100D+01
 Coeff:      0.000D+00 0.100D+01
 Gap=     0.095 Goal=   None    Shift=    0.000
 RMSDP=8.02D-03 MaxDP=3.28D-01 DE=-4.93D-02 OVMax= 3.87D-01

 Cycle   3  Pass 1  IDiag  1:
 E= -1916.69486604873     Delta-E=        0.136782658373 Rises=F Damp=F
 DIIS: error= 2.86D-02 at cycle   3 NSaved=   3.
 NSaved= 3 IEnMin= 2 EnMin= -1916.83164870710     IErMin= 2 ErrMin= 1.42D-02
 ErrMax= 2.86D-02  0.00D+00 EMaxC= 1.00D-01 BMatC= 1.67D-01 BMatP= 1.24D-01
 IDIUse=2 WtCom= 0.00D+00 WtEn= 1.00D+00
 Coeff-En:   0.000D+00 0.731D+00 0.269D+00
 Coeff:      0.000D+00 0.731D+00 0.269D+00
 Gap=     0.106 Goal=   None    Shift=    0.000
 RMSDP=4.38D-03 MaxDP=2.04D-01 DE= 1.37D-01 OVMax= 3.05D-01

 Cycle   4  Pass 1  IDiag  1:
 E= -1916.88641321619     Delta-E=       -0.191547167464 Rises=F Damp=F
 DIIS: error= 6.02D-03 at cycle   4 NSaved=   4.
 NSaved= 4 IEnMin= 4 EnMin= -1916.88641321619     IErMin= 4 ErrMin= 6.02D-03
 ErrMax= 6.02D-03  0.00D+00 EMaxC= 1.00D-01 BMatC= 1.45D-02 BMatP= 1.24D-01
 IDIUse=3 WtCom= 9.40D-01 WtEn= 6.02D-02
 Coeff-Com:  0.773D-01 0.161D+00 0.985D-01 0.663D+00
 Coeff-En:   0.000D+00 0.000D+00 0.000D+00 0.100D+01
 Coeff:      0.726D-01 0.151D+00 0.926D-01 0.684D+00
 Gap=     0.126 Goal=   None    Shift=    0.000
 RMSDP=2.11D-03 MaxDP=1.03D-01 DE=-1.92D-01 OVMax= 7.10D-02

 Cycle   5  Pass 1  IDiag  1:
 E= -1916.88884171490     Delta-E=       -0.002428498708 Rises=F Damp=F
 DIIS: error= 5.93D-03 at cycle   5 NSaved=   5.
 NSaved= 5 IEnMin= 5 EnMin= -1916.88884171490     IErMin= 5 ErrMin= 5.93D-03
 ErrMax= 5.93D-03  0.00D+00 EMaxC= 1.00D-01 BMatC= 1.07D-02 BMatP= 1.45D-02
 IDIUse=3 WtCom= 9.41D-01 WtEn= 5.93D-02
 Coeff-Com: -0.502D-03 0.238D-01-0.107D-01 0.468D+00 0.519D+00
 Coeff-En:   0.000D+00 0.000D+00 0.000D+00 0.457D+00 0.543D+00
 Coeff:     -0.472D-03 0.224D-01-0.100D-01 0.468D+00 0.521D+00
 Gap=     0.129 Goal=   None    Shift=    0.000
 RMSDP=1.01D-03 MaxDP=5.58D-02 DE=-2.43D-03 OVMax= 5.12D-02

 Cycle   6  Pass 1  IDiag  1:
 E= -1916.89869335165     Delta-E=       -0.009851636751 Rises=F Damp=F
 DIIS: error= 1.33D-03 at cycle   6 NSaved=   6.
 NSaved= 6 IEnMin= 6 EnMin= -1916.89869335165     IErMin= 6 ErrMin= 1.33D-03
 ErrMax= 1.33D-03  0.00D+00 EMaxC= 1.00D-01 BMatC= 3.96D-04 BMatP= 1.07D-02
 IDIUse=3 WtCom= 9.87D-01 WtEn= 1.33D-02
 Coeff-Com:  0.445D-03 0.626D-02-0.913D-02 0.226D+00 0.294D+00 0.482D+00
 Coeff-En:   0.000D+00 0.000D+00 0.000D+00 0.000D+00 0.000D+00 0.100D+01
 Coeff:      0.439D-03 0.618D-02-0.901D-02 0.223D+00 0.290D+00 0.489D+00
 Gap=     0.129 Goal=   None    Shift=    0.000
 RMSDP=2.55D-04 MaxDP=1.20D-02 DE=-9.85D-03 OVMax= 1.10D-02

 Cycle   7  Pass 1  IDiag  1:
 E= -1916.89908597644     Delta-E=       -0.000392624790 Rises=F Damp=F
 DIIS: error= 2.93D-04 at cycle   7 NSaved=   7.
 NSaved= 7 IEnMin= 7 EnMin= -1916.89908597644     IErMin= 7 ErrMin= 2.93D-04
 ErrMax= 2.93D-04  0.00D+00 EMaxC= 1.00D-01 BMatC= 3.43D-05 BMatP= 3.96D-04
 IDIUse=3 WtCom= 9.97D-01 WtEn= 2.93D-03
 Coeff-Com: -0.471D-03 0.523D-03-0.501D-02 0.793D-01 0.110D+00 0.272D+00
 Coeff-Com:  0.543D+00
 Coeff-En:   0.000D+00 0.000D+00 0.000D+00 0.000D+00 0.000D+00 0.409D-01
 Coeff-En:   0.959D+00
 Coeff:     -0.470D-03 0.521D-03-0.500D-02 0.790D-01 0.110D+00 0.272D+00
 Coeff:      0.544D+00
 Gap=     0.129 Goal=   None    Shift=    0.000
 RMSDP=7.93D-05 MaxDP=3.63D-03 DE=-3.93D-04 OVMax= 2.54D-03

 Cycle   8  Pass 1  IDiag  1:
 E= -1916.89912027837     Delta-E=       -0.000034301932 Rises=F Damp=F
 DIIS: error= 7.73D-05 at cycle   8 NSaved=   8.
 NSaved= 8 IEnMin= 8 EnMin= -1916.89912027837     IErMin= 8 ErrMin= 7.73D-05
 ErrMax= 7.73D-05  0.00D+00 EMaxC= 1.00D-01 BMatC= 2.52D-06 BMatP= 3.43D-05
 IDIUse=1 WtCom= 1.00D+00 WtEn= 0.00D+00
 Coeff-Com: -0.660D-04-0.202D-03-0.177D-02 0.157D-01 0.246D-01 0.887D-01
 Coeff-Com:  0.286D+00 0.587D+00
 Coeff:     -0.660D-04-0.202D-03-0.177D-02 0.157D-01 0.246D-01 0.887D-01
 Coeff:      0.286D+00 0.587D+00
 Gap=     0.129 Goal=   None    Shift=    0.000
 RMSDP=2.31D-05 MaxDP=8.35D-04 DE=-3.43D-05 OVMax= 4.50D-04

 Cycle   9  Pass 1  IDiag  1:
 E= -1916.89912278032     Delta-E=       -0.000002501949 Rises=F Damp=F
 DIIS: error= 1.78D-05 at cycle   9 NSaved=   9.
 NSaved= 9 IEnMin= 9 EnMin= -1916.89912278032     IErMin= 9 ErrMin= 1.78D-05
 ErrMax= 1.78D-05  0.00D+00 EMaxC= 1.00D-01 BMatC= 1.08D-07 BMatP= 2.52D-06
 IDIUse=1 WtCom= 1.00D+00 WtEn= 0.00D+00
 Coeff-Com: -0.454D-04-0.924D-04-0.693D-03 0.340D-02 0.555D-02 0.257D-01
 Coeff-Com:  0.996D-01 0.270D+00 0.596D+00
 Coeff:     -0.454D-04-0.924D-04-0.693D-03 0.340D-02 0.555D-02 0.257D-01
 Coeff:      0.996D-01 0.270D+00 0.596D+00
 Gap=     0.129 Goal=   None    Shift=    0.000
 RMSDP=6.59D-06 MaxDP=2.49D-04 DE=-2.50D-06 OVMax= 1.03D-04

 Cycle  10  Pass 1  IDiag  1:
 E= -1916.89912288645     Delta-E=       -0.000000106133 Rises=F Damp=F
 DIIS: error= 5.82D-06 at cycle  10 NSaved=  10.
 NSaved=10 IEnMin=10 EnMin= -1916.89912288645     IErMin=10 ErrMin= 5.82D-06
 ErrMax= 5.82D-06  0.00D+00 EMaxC= 1.00D-01 BMatC= 1.01D-08 BMatP= 1.08D-07
 IDIUse=1 WtCom= 1.00D+00 WtEn= 0.00D+00
 Coeff-Com:  0.537D-06-0.693D-05-0.141D-03-0.257D-03-0.672D-03-0.635D-03
 Coeff-Com:  0.323D-02 0.381D-01 0.242D+00 0.718D+00
 Coeff:      0.537D-06-0.693D-05-0.141D-03-0.257D-03-0.672D-03-0.635D-03
 Coeff:      0.323D-02 0.381D-01 0.242D+00 0.718D+00
 Gap=     0.129 Goal=   None    Shift=    0.000
 RMSDP=1.69D-06 MaxDP=4.53D-05 DE=-1.06D-07 OVMax= 7.41D-05

 Cycle  11  Pass 1  IDiag  1:
 E= -1916.89912289873     Delta-E=       -0.000000012276 Rises=F Damp=F
 DIIS: error= 7.67D-07 at cycle  11 NSaved=  11.
 NSaved=11 IEnMin=11 EnMin= -1916.89912289873     IErMin=11 ErrMin= 7.67D-07
 ErrMax= 7.67D-07  0.00D+00 EMaxC= 1.00D-01 BMatC= 3.67D-10 BMatP= 1.01D-08
 IDIUse=1 WtCom= 1.00D+00 WtEn= 0.00D+00
 Coeff-Com:  0.117D-05 0.320D-05-0.111D-04-0.257D-03-0.520D-03-0.147D-02
 Coeff-Com: -0.350D-02 0.117D-02 0.574D-01 0.266D+00 0.681D+00
 Coeff:      0.117D-05 0.320D-05-0.111D-04-0.257D-03-0.520D-03-0.147D-02
 Coeff:     -0.350D-02 0.117D-02 0.574D-01 0.266D+00 0.681D+00
 Gap=     0.129 Goal=   None    Shift=    0.000
 RMSDP=5.18D-07 MaxDP=4.00D-05 DE=-1.23D-08 OVMax= 1.18D-05

 Cycle  12  Pass 1  IDiag  1:
 E= -1916.89912289914     Delta-E=       -0.000000000417 Rises=F Damp=F
 DIIS: error= 2.20D-07 at cycle  12 NSaved=  12.
 NSaved=12 IEnMin=12 EnMin= -1916.89912289914     IErMin=12 ErrMin= 2.20D-07
 ErrMax= 2.20D-07  0.00D+00 EMaxC= 1.00D-01 BMatC= 2.03D-11 BMatP= 3.67D-10
 IDIUse=1 WtCom= 1.00D+00 WtEn= 0.00D+00
 Coeff-Com:  0.757D-07 0.162D-05 0.328D-05-0.697D-04-0.142D-03-0.441D-03
 Coeff-Com: -0.131D-02-0.159D-02 0.630D-02 0.545D-01 0.240D+00 0.703D+00
 Coeff:      0.757D-07 0.162D-05 0.328D-05-0.697D-04-0.142D-03-0.441D-03
 Coeff:     -0.131D-02-0.159D-02 0.630D-02 0.545D-01 0.240D+00 0.703D+00
 Gap=     0.129 Goal=   None    Shift=    0.000
 RMSDP=1.64D-07 MaxDP=1.30D-05 DE=-4.17D-10 OVMax= 1.59D-06

 Cycle  13  Pass 1  IDiag  1:
 E= -1916.89912289918     Delta-E=       -0.000000000032 Rises=F Damp=F
 DIIS: error= 5.87D-08 at cycle  13 NSaved=  13.
 NSaved=13 IEnMin=13 EnMin= -1916.89912289918     IErMin=13 ErrMin= 5.87D-08
 ErrMax= 5.87D-08  0.00D+00 EMaxC= 1.00D-01 BMatC= 1.23D-12 BMatP= 2.03D-11
 IDIUse=1 WtCom= 1.00D+00 WtEn= 0.00D+00
 Coeff-Com:  0.145D-07 0.911D-07 0.155D-05-0.248D-06-0.447D-06-0.106D-06
 Coeff-Com: -0.864D-04-0.633D-03-0.335D-02-0.700D-02 0.116D-01 0.200D+00
 Coeff-Com:  0.800D+00
 Coeff:      0.145D-07 0.911D-07 0.155D-05-0.248D-06-0.447D-06-0.106D-06
 Coeff:     -0.864D-04-0.633D-03-0.335D-02-0.700D-02 0.116D-01 0.200D+00
 Coeff:      0.800D+00
 Gap=     0.129 Goal=   None    Shift=    0.000
 RMSDP=4.28D-08 MaxDP=3.48D-06 DE=-3.23D-11 OVMax= 5.20D-07

 Cycle  14  Pass 1  IDiag  1:
 E= -1916.89912289920     Delta-E=       -0.000000000019 Rises=F Damp=F
 DIIS: error= 1.48D-08 at cycle  14 NSaved=  14.
 NSaved=14 IEnMin=14 EnMin= -1916.89912289920     IErMin=14 ErrMin= 1.48D-08
 ErrMax= 1.48D-08  0.00D+00 EMaxC= 1.00D-01 BMatC= 1.02D-13 BMatP= 1.23D-12
 IDIUse=1 WtCom= 1.00D+00 WtEn= 0.00D+00
 Coeff-Com: -0.173D-08-0.585D-07 0.310D-06 0.365D-05 0.731D-05 0.247D-04
 Coeff-Com:  0.356D-04-0.162D-03-0.161D-02-0.593D-02-0.102D-01 0.284D-01
 Coeff-Com:  0.287D+00 0.702D+00
 Coeff:     -0.173D-08-0.585D-07 0.310D-06 0.365D-05 0.731D-05 0.247D-04
 Coeff:      0.356D-04-0.162D-03-0.161D-02-0.593D-02-0.102D-01 0.284D-01
 Coeff:      0.287D+00 0.702D+00
 Gap=     0.129 Goal=   None    Shift=    0.000
 RMSDP=4.97D-09 MaxDP=2.63D-07 DE=-1.91D-11 OVMax= 1.40D-07

 SCF Done:  E(RB3LYP) =  -1916.89912290     A.U. after   14 cycles
            NFock= 14  Conv=0.50D-08     -V/T= 2.0019
 KE= 1.913234785758D+03 PE=-5.537795797190D+03 EE= 1.214931539850D+03
 Leave Link  502 at Wed Jun 12 23:12:29 2024, MaxMem=  1073741824 cpu:        53.0
 (Enter /apps/z_install_tree/linux-rocky8-ivybridge/gcc-12.2.0/gaussian-09-D.01-wczn3gur5lpur3omlkzwa2l5ecyxp5ef/g09/l508.exe)
 QCSCF skips out because SCF is already converged.
 Leave Link  508 at Wed Jun 12 23:12:29 2024, MaxMem=  1073741824 cpu:         0.0
[...]
 
                                                                X       X                                   XX        X              
                                                                X       X                                                            
                                                                X       X                                                            
                                                                X       X                                                            
                                                                X       X                                                            
                                                                X       X                                                            
                                                                X       X                                                            
                                                                X                                                                    
                                                                X                                                                    
                                                                X                                                                    
                                                                X                                                                    
                                                                X                                                                    
                                                                X                                                                    
                                                                X                                                                    
                                                                X                                                                    
                                                                X                                                                    
                                                                X                                                                    
                                                                X                                                                    
                                                                X                                                                    
                                                                X                                                                    
 
 -------------------------------------------------------------------
 Center     Atomic                   Forces (Hartrees/Bohr)
 Number     Number              X              Y              Z
 -------------------------------------------------------------------
      1        6           0.000017718   -0.000102692   -0.000232648
      2        6          -0.000133060   -0.000050781    0.000297808
      3       17          -0.000016070   -0.000004370    0.000058068
      4       17           0.000011754    0.000065431    0.000047211
      5       17           0.000010393   -0.000063889   -0.000175366
      6       17           0.000109265    0.000156302    0.000004927
 -------------------------------------------------------------------
 Cartesian Forces:  Max     0.000297808 RMS     0.000119162
 Force constants in Cartesian coordinates: 
                1             2             3             4             5 
      1  0.331586D+00
      2  0.225821D+00  0.326224D+00
      3 -0.170241D+00 -0.698072D-01  0.445265D+00
      4 -0.218772D+00 -0.136979D+00  0.157646D+00  0.331771D+00
      5 -0.136961D+00 -0.167510D+00  0.128428D+00  0.226028D+00  0.326377D+00
      6  0.157631D+00  0.128424D+00 -0.209336D+00 -0.170107D+00 -0.696202D-01
      7 -0.309088D-01 -0.307393D-02  0.174816D-01  0.202549D-02  0.125892D-02
      8  0.771455D-03 -0.329379D-01 -0.301784D-01 -0.317823D-02  0.464958D-02
      9  0.281003D-01 -0.177275D-01 -0.162885D+00  0.505266D-02 -0.863268D-02
     10 -0.728558D-01 -0.637026D-01 -0.141112D-01 -0.110410D-01 -0.232881D-01
     11 -0.675629D-01 -0.110801D+00 -0.236529D-01 -0.188308D-01 -0.196237D-01
     12 -0.247155D-01 -0.360981D-01 -0.424943D-01  0.416829D-02  0.383674D-02
     13  0.203510D-02  0.125850D-02  0.173196D-01 -0.309005D-01 -0.307356D-02
     14 -0.317273D-02  0.465811D-02  0.575287D-02  0.755344D-03 -0.329173D-01
     15  0.505710D-02 -0.862362D-02 -0.339466D-01  0.281195D-01 -0.177412D-01
     16 -0.110845D-01 -0.233244D-01 -0.809477D-02 -0.730829D-01 -0.639636D-01
     17 -0.188959D-01 -0.196331D-01 -0.105424D-01 -0.677950D-01 -0.110975D+00
     18  0.416797D-02  0.383202D-02  0.339559D-02 -0.248795D-01 -0.362707D-01
                6             7             8             9            10 
      6  0.445626D+00
      7  0.173142D-01  0.290635D-01
      8  0.573995D-02  0.115830D-01  0.394098D-01
      9 -0.339401D-01 -0.290233D-01  0.429765D-01  0.222948D+00
     10 -0.808370D-02  0.218039D-02 -0.531100D-02 -0.825190D-02  0.850688D-01
     11 -0.105436D-01 -0.702712D-02 -0.111391D-01 -0.194578D-01  0.976949D-01
     12  0.339445D-02 -0.129957D-01 -0.250249D-01 -0.228333D-01  0.273355D-01
     13  0.175083D-01  0.130335D-02 -0.241690D-02  0.255423D-02 -0.365551D-02
     14 -0.301773D-01 -0.241799D-02  0.150189D-02  0.510698D-03 -0.143770D-02
     15 -0.163190D+00  0.254804D-02  0.511762D-03 -0.270681D-02  0.155961D-02
     16 -0.142631D-01 -0.366403D-02 -0.144837D-02  0.156802D-02  0.303090D-03
     17 -0.238233D-01 -0.322925D-03 -0.148425D-02  0.233071D-02 -0.395540D-02
     18 -0.425553D-01  0.467514D-02  0.597505D-02 -0.583296D-03  0.155174D-02
               11            12            13            14            15 
     11  0.143396D+00
     12  0.509559D-01  0.623639D-01
     13 -0.321730D-03  0.465486D-02  0.290358D-01
     14 -0.148007D-02  0.596164D-02  0.115941D-01  0.393548D-01
     15  0.232887D-02 -0.574111D-03 -0.290065D-01  0.429990D-01  0.223311D+00
     16 -0.395233D-02  0.155252D-02  0.218169D-02 -0.532098D-02 -0.827777D-02
     17 -0.352386D-03  0.368641D-03 -0.704036D-02 -0.111174D-01 -0.194748D-01
     18  0.369418D-03  0.143365D-03 -0.130305D-01 -0.250468D-01 -0.228936D-01
               16            17            18 
     16  0.853467D-01
     17  0.980096D-01  0.143562D+00
     18  0.275151D-01  0.511411D-01  0.624932D-01
 FormGI is forming the generalized inverse of G from B-inverse, IUseBI=4.
 Force constants in internal coordinates: 
                1             2             3             4             5 
      1  0.577857D+00
      2  0.239530D-01  0.235722D+00
      3  0.239401D-01  0.294099D-01  0.235116D+00
      4  0.417866D-01  0.392473D-02  0.370210D-02  0.223781D+00
      5  0.418271D-01  0.370494D-02  0.392766D-02  0.172215D-01  0.223561D+00
      6 -0.211638D-01 -0.145962D-02 -0.145804D-02 -0.215528D-01 -0.216209D-01
      7  0.211514D-01  0.253570D-01 -0.419593D-01  0.997751D-02  0.483635D-02
      8  0.210182D-01 -0.419120D-01  0.254150D-01  0.479563D-02  0.994819D-02
      9 -0.421695D-01  0.165549D-01  0.165443D-01 -0.147731D-01 -0.147845D-01
     10  0.259496D-01  0.480417D-02 -0.333476D-03  0.973635D-01  0.299808D-01
     11  0.260844D-01 -0.323960D-03  0.481284D-02  0.302065D-01  0.975287D-01
     12  0.873401D-05  0.650303D-05  0.418539D-05  0.220726D-05  0.830376D-05
     13  0.431843D-05  0.811818D-05  0.782086D-05  0.103047D-05 -0.195809D-05
     14 -0.118712D-04 -0.112273D-04 -0.969557D-05  0.343831D-05  0.379044D-05
     15 -0.162868D-04 -0.961214D-05 -0.606010D-05  0.226151D-05 -0.647141D-05
                6             7             8             9            10 
      6  0.684745D-01
      7 -0.689003D-02  0.169399D+00
      8 -0.685269D-02 -0.902910D-01  0.169329D+00
      9  0.137427D-01 -0.791077D-01 -0.790378D-01  0.158146D+00
     10 -0.297244D-01 -0.327922D-01  0.437010D-01 -0.109088D-01  0.168717D+00
     11 -0.298297D-01  0.437948D-01 -0.327530D-01 -0.110418D-01 -0.908948D-01
     12 -0.933691D-05 -0.269838D-04  0.395267D-04 -0.154066D-05  0.196096D-04
     13 -0.119600D-05 -0.203728D-05  0.974072D-05  0.000000D+00  0.450822D-05
     14 -0.495238D-05 -0.148586D-04  0.467202D-05  0.209696D-05  0.239887D-04
     15  0.318854D-05  0.100880D-04 -0.251140D-04  0.401995D-05  0.888732D-05
               11            12            13            14            15 
     11  0.168966D+00
     12 -0.608738D-05  0.372958D-01
     13 -0.661731D-05  0.576983D-02  0.289488D-01
     14 -0.153727D-04  0.577963D-02 -0.173920D-01  0.289524D-01
     15 -0.159026D-04 -0.257464D-01  0.578697D-02  0.578078D-02  0.373141D-01
 Leave Link  716 at Wed Jun 12 23:14:13 2024, MaxMem=  1073741824 cpu:         0.4
 (Enter /apps/z_install_tree/linux-rocky8-ivybridge/gcc-12.2.0/gaussian-09-D.01-wczn3gur5lpur3omlkzwa2l5ecyxp5ef/g09/l103.exe)

 GradGradGradGradGradGradGradGradGradGradGradGradGradGradGradGradGradGrad
 Berny optimization.
 Red2BG is reusing G-inverse.
 Internal  Forces:  Max     0.000208669 RMS     0.000091012
 Search for a local minimum.
 Step number   1 out of a maximum of    2
 All quantities printed in internal units (Hartrees-Bohrs-Radians)
 Second derivative matrix not updated -- analytic derivatives used.
 The second derivative matrix:
                          R1        R2        R3        R4        R5
           R1           0.57786
           R2           0.02395   0.23572
           R3           0.02394   0.02941   0.23512
           R4           0.04179   0.00392   0.00370   0.22378
           R5           0.04183   0.00370   0.00393   0.01722   0.22356
           R6          -0.02116  -0.00146  -0.00146  -0.02155  -0.02162
           A1           0.02115   0.02536  -0.04196   0.00998   0.00484
           A2           0.02102  -0.04191   0.02541   0.00480   0.00995
           A3          -0.04217   0.01655   0.01654  -0.01477  -0.01478
           A4           0.02595   0.00480  -0.00033   0.09736   0.02998
           A5           0.02608  -0.00032   0.00481   0.03021   0.09753
           D1           0.00001   0.00001   0.00000   0.00000   0.00001
           D2           0.00000   0.00001   0.00001   0.00000   0.00000
           D3          -0.00001  -0.00001  -0.00001   0.00000   0.00000
           D4          -0.00002  -0.00001  -0.00001   0.00000  -0.00001
                          R6        A1        A2        A3        A4
           R6           0.06847
           A1          -0.00689   0.16940
           A2          -0.00685  -0.09029   0.16933
           A3           0.01374  -0.07911  -0.07904   0.15815
           A4          -0.02972  -0.03279   0.04370  -0.01091   0.16872
           A5          -0.02983   0.04379  -0.03275  -0.01104  -0.09089
           D1          -0.00001  -0.00003   0.00004   0.00000   0.00002
           D2           0.00000   0.00000   0.00001   0.00000   0.00000
           D3           0.00000  -0.00001   0.00000   0.00000   0.00002
           D4           0.00000   0.00001  -0.00003   0.00000   0.00001
                          A5        D1        D2        D3        D4
           A5           0.16897
           D1          -0.00001   0.03730
           D2          -0.00001   0.00577   0.02895
           D3          -0.00002   0.00578  -0.01739   0.02895
           D4          -0.00002  -0.02575   0.00579   0.00578   0.03731
 ITU=  0
     Eigenvalues ---    0.02312   0.04634   0.06305   0.06683   0.12141
     Eigenvalues ---    0.18107   0.20479   0.26822   0.27881   0.30789
     Eigenvalues ---    0.36115   0.60890
 Angle between quadratic step and forces=  43.42 degrees.
 Linear search not attempted -- first point.
 Iteration  1 RMS(Cart)=  0.00069448 RMS(Int)=  0.00000024
 Iteration  2 RMS(Cart)=  0.00000022 RMS(Int)=  0.00000002
 ITry= 1 IFail=0 DXMaxC= 1.50D-03 DCOld= 1.00D+10 DXMaxT= 3.00D-01 DXLimC= 3.00D+00 Rises=F
 Variable       Old X    -DE/DX   Delta X   Delta X   Delta X     New X
                                 (Linear)    (Quad)   (Total)
    R1        2.53087  -0.00006   0.00000  -0.00022  -0.00022   2.53065
    R2        3.26857   0.00006   0.00000   0.00046   0.00046   3.26903
    R3        3.26952  -0.00007   0.00000  -0.00047  -0.00047   3.26905
    R4        3.26805   0.00017   0.00000   0.00097   0.00097   3.26903
    R5        3.26856   0.00017   0.00000   0.00049   0.00049   3.26905
    R6        5.50718   0.00002   0.00000   0.00079   0.00079   5.50797
    A1        2.14008   0.00001   0.00000  -0.00030  -0.00030   2.13979
    A2        2.13928   0.00005   0.00000   0.00051   0.00051   2.13979
    A3        2.00382  -0.00005   0.00000  -0.00021  -0.00021   2.00361
    A4        2.14036  -0.00005   0.00000  -0.00057  -0.00057   2.13979
    A5        2.13897   0.00021   0.00000   0.00082   0.00082   2.13979
    D1       -3.14113   0.00000   0.00000  -0.00047  -0.00047  -3.14159
    D2        0.00060  -0.00001   0.00000  -0.00061  -0.00061  -0.00001
    D3        0.00091  -0.00002   0.00000  -0.00090  -0.00090   0.00002
    D4       -3.14055  -0.00004   0.00000  -0.00104  -0.00104  -3.14159
         Item               Value     Threshold  Converged?
 Maximum Force            0.000209     0.000450     YES
 RMS     Force            0.000091     0.000300     YES
 Maximum Displacement     0.001500     0.001800     YES
 RMS     Displacement     0.000694     0.001200     YES
 Predicted change in Energy=-3.181303D-07
 Optimization completed.
    -- Stationary point found.
                           ----------------------------
                           !   Optimized Parameters   !
                           ! (Angstroms and Degrees)  !
 --------------------------                            --------------------------
 ! Name  Definition              Value          Derivative Info.                !
 --------------------------------------------------------------------------------
 ! R1    R(1,2)                  1.3393         -DE/DX =   -0.0001              !
 ! R2    R(1,3)                  1.7297         -DE/DX =    0.0001              !
 ! R3    R(1,4)                  1.7302         -DE/DX =   -0.0001              !
 ! R4    R(2,5)                  1.7294         -DE/DX =    0.0002              !
 ! R5    R(2,6)                  1.7296         -DE/DX =    0.0002              !
 ! R6    R(5,6)                  2.9143         -DE/DX =    0.0                 !
 ! A1    A(2,1,3)              122.6178         -DE/DX =    0.0                 !
 ! A2    A(2,1,4)              122.5716         -DE/DX =    0.0                 !
 ! A3    A(3,1,4)              114.8106         -DE/DX =   -0.0001              !
 ! A4    A(1,2,5)              122.6336         -DE/DX =   -0.0001              !
 ! A5    A(1,2,6)              122.5537         -DE/DX =    0.0002              !
 ! D1    D(3,1,2,5)           -179.9733         -DE/DX =    0.0                 !
 ! D2    D(3,1,2,6)              0.0342         -DE/DX =    0.0                 !
 ! D3    D(4,1,2,5)              0.0523         -DE/DX =    0.0                 !
 ! D4    D(4,1,2,6)           -179.9403         -DE/DX =    0.0                 !
 --------------------------------------------------------------------------------
 GradGradGradGradGradGradGradGradGradGradGradGradGradGradGradGradGradGrad

 Leave Link  103 at Wed Jun 12 23:14:14 2024, MaxMem=  1073741824 cpu:         0.7
 (Enter /apps/z_install_tree/linux-rocky8-ivybridge/gcc-12.2.0/gaussian-09-D.01-wczn3gur5lpur3omlkzwa2l5ecyxp5ef/g09/l9999.exe)
 1\1\GINC-K160\Freq\RB3LYP\Gen\C2Cl4\Z5112331\12-Jun-2024\0\\#P Geom=Al
 lCheck Guess=TCheck SCRF=Check GenChk RB3LYP/ChkBas Freq\\tetrachloroe
 thene\\0,1\C,49.8227041087,35.7070780008,32.6346984274\C,50.6524891591
 ,36.3914443066,31.8367192201\Cl,49.623058791,36.0801159474,34.31180602
 98\Cl,48.8677781877,34.3805640373,32.0673234867\Cl,50.8519148495,36.01
 92506089,30.1596819411\Cl,51.6080549041,37.716547099,32.404770895\\Ver
 sion=ES64L-G09RevD.01\HF=-1917.1013268\RMSD=4.733e-10\RMSF=1.192e-04\Z
 eroPoint=0.0151644\Thermal=0.0216959\Dipole=0.0004608,0.000381,-0.0002
 821\DipoleDeriv=0.25819,0.352828,-0.0137335,0.3531471,0.4729291,0.2893
 754,-0.0139596,0.2895327,0.7970257,0.2593126,0.353417,-0.0136513,0.353
 2134,0.4715578,0.2889329,-0.0135836,0.2887262,0.7975191,-0.03536,-0.04
 21516,0.0739772,-0.0225115,-0.0620558,-0.1628917,0.1285301,-0.0991199,
 -0.6663629,-0.223202,-0.310785,-0.0602184,-0.330654,-0.4107109,-0.1263
 94,-0.1144772,-0.1901143,-0.130817,-0.0353418,-0.0422109,0.0739824,-0.
 0225452,-0.0616766,-0.162644,0.1283187,-0.098815,-0.6665323,-0.2235988
 ,-0.3110976,-0.0603565,-0.3306498,-0.4100436,-0.1263786,-0.1148285,-0.
 1902098,-0.1308326\Polar=69.6248574,22.450542,75.1440488,-10.0179656,3
 .9301276,90.7337975\PG=C01 [X(C2Cl4)]\NImag=0\\0.33158593,0.22582129,0
 .32622390,-0.17024110,-0.06980723,0.44526546,-0.21877201,-0.13697885,0
 .15764587,0.33177091,-0.13696120,-0.16751020,0.12842809,0.22602755,0.3
 2637670,0.15763118,0.12842441,-0.20933551,-0.17010686,-0.06962019,0.44
 562606,-0.03090875,-0.00307393,0.01748158,0.00202549,0.00125892,0.0173
 1423,0.02906354,0.00077146,-0.03293794,-0.03017844,-0.00317823,0.00464
 958,0.00573995,0.01158304,0.03940978,0.02810031,-0.01772747,-0.1628846
 3,0.00505266,-0.00863268,-0.03394009,-0.02902331,0.04297653,0.22294808
 ,-0.07285578,-0.06370264,-0.01411121,-0.01104099,-0.02328813,-0.008083
 70,0.00218039,-0.00531100,-0.00825190,0.08506879,-0.06756288,-0.110800
 81,-0.02365288,-0.01883081,-0.01962367,-0.01054356,-0.00702712,-0.0111
 3907,-0.01945780,0.09769486,0.14339601,-0.02471545,-0.03609811,-0.0424
 9431,0.00416829,0.00383674,0.00339445,-0.01299568,-0.02502486,-0.02283
 325,0.02733546,0.05095595,0.06236385,0.00203510,0.00125850,0.01731964,
 -0.03090046,-0.00307356,0.01750825,0.00130335,-0.00241690,0.00255423,-
 0.00365551,-0.00032173,0.00465486,0.02903582,-0.00317273,0.00465811,0.
 00575287,0.00075534,-0.03291731,-0.03017734,-0.00241799,0.00150189,0.0
 0051070,-0.00143770,-0.00148007,0.00596164,0.01159405,0.03935480,0.005
 05710,-0.00862362,-0.03394660,0.02811954,-0.01774122,-0.16318965,0.002
 54804,0.00051176,-0.00270681,0.00155961,0.00232887,-0.00057411,-0.0290
 0651,0.04299897,0.22331076,-0.01108449,-0.02332436,-0.00809477,-0.0730
 8295,-0.06396359,-0.01426311,-0.00366403,-0.00144837,0.00156802,0.0003
 0309,-0.00395233,0.00155252,0.00218169,-0.00532098,-0.00827777,0.08534
 669,-0.01889593,-0.01963307,-0.01054240,-0.06779501,-0.11097510,-0.023
 82328,-0.00032292,-0.00148425,0.00233071,-0.00395540,-0.00035239,0.000
 36864,-0.00704036,-0.01111742,-0.01947477,0.09800963,0.14356222,0.0041
 6797,0.00383202,0.00339559,-0.02487949,-0.03627074,-0.04255526,0.00467
 514,0.00597505,-0.00058330,0.00155174,0.00036942,0.00014336,-0.0130304
 7,-0.02504684,-0.02289358,0.02751512,0.05114109,0.06249319\\-0.0000177
 2,0.00010269,0.00023265,0.00013306,0.00005078,-0.00029781,0.00001607,0
 .00000437,-0.00005807,-0.00001175,-0.00006543,-0.00004721,-0.00001039,
 0.00006389,0.00017537,-0.00010927,-0.00015630,-0.00000493\\\@


 THE VALUE OF PHILOSOPHY IS, IN FACT, TO BE SOUGHT LARGELY IN ITS
 VERY UNCERTAINTY.  THE MAN WHO HAS NO TINCTURE OF PHILOSOPHY GOES
 THROUGH LIFE IMPRISONED IN THE PREJUDICES DERIVED FROM COMMON SENSE,
 FROM THE HABITUAL BELIEFS OF HIS AGE OR HIS NATION, AND FROM
 CONVICTIONS WHICH HAVE GROWN UP IN HIS MIND WITHOUT THE CO-OPERATION
 OR CONSENT OF HIS DELIBERATE REASON.  TO SUCH A MAN THE WORLD TENDS
 TO BE DEFINITE, FINITE, OBVIOUS; COMMON OBJECTS ROUSE NO QUESTIONS,
 AND UNFAMILIAR POSSIBILITIES ARE CONTEMPTUOUSLY REJECTED.

                             -- BERTRAND RUSSELL
 Job cpu time:       0 days  0 hours  5 minutes 19.7 seconds.
 File lengths (MBytes):  RWF=    133 Int=      0 D2E=      0 Chk=      5 Scr=      2
 Normal termination of Gaussian 09 at Wed Jun 12 23:14:14 2024.
