 Entering Gaussian System, Link 0=g16
 Initial command:
 /apps/gaussian/g16c01/g16/l1.exe "/jobfs/145008512.gadi-pbs/Gau-4084808.inp" -scrdir="/jobfs/145008512.gadi-pbs/"
 Entering Link 1 = /apps/gaussian/g16c01/g16/l1.exe PID=   4084809.
  
 Copyright (c) 1988-2019, Gaussian, Inc.  All Rights Reserved.
  
 This is part of the Gaussian(R) 16 program.  It is based on
 the Gaussian(R) 09 system (copyright 2009, Gaussian, Inc.),
 the Gaussian(R) 03 system (copyright 2003, Gaussian, Inc.),
 the Gaussian(R) 98 system (copyright 1998, Gaussian, Inc.),
 the Gaussian(R) 94 system (copyright 1995, Gaussian, Inc.),
 the Gaussian 92(TM) system (copyright 1992, Gaussian, Inc.),
 the Gaussian 90(TM) system (copyright 1990, Gaussian, Inc.),
 the Gaussian 88(TM) system (copyright 1988, Gaussian, Inc.),
 the Gaussian 86(TM) system (copyright 1986, Carnegie Mellon
 University), and the Gaussian 82(TM) system (copyright 1983,
 Carnegie Mellon University). Gaussian is a federally registered
 trademark of Gaussian, Inc.
  
 This software contains proprietary and confidential information,
 including trade secrets, belonging to Gaussian, Inc.
  
 This software is provided under written license and may be
 used, copied, transmitted, or stored only in accord with that
 written license.
  
 The following legend is applicable only to US Government
 contracts under FAR:
  
                    RESTRICTED RIGHTS LEGEND
  
 Use, reproduction and disclosure by the US Government is
 subject to restrictions as set forth in subparagraphs (a)
 and (c) of the Commercial Computer Software - Restricted
 Rights clause in FAR 52.227-19.
  
 Gaussian, Inc.
 340 Quinnipiac St., Bldg. 40, Wallingford CT 06492
  
  
 ---------------------------------------------------------------
 Warning -- This program may not be used in any manner that
 competes with the business of Gaussian, Inc. or will provide
 assistance to any competitor of Gaussian, Inc.  The licensee
 of this program is prohibited from giving any competitor of
 Gaussian, Inc. access to this program.  By using this program,
 the user acknowledges that Gaussian, Inc. is engaged in the
 business of creating and licensing software in the field of
 computational chemistry and represents and warrants to the
 licensee that it is not a competitor of Gaussian, Inc. and that
 it will not use this program in any manner prohibited above.
 ---------------------------------------------------------------
  

 Cite this work as:
 Gaussian 16, Revision C.01,
 M. J. Frisch, G. W. Trucks, H. B. Schlegel, G. E. Scuseria, 
 M. A. Robb, J. R. Cheeseman, G. Scalmani, V. Barone, 
 G. A. Petersson, H. Nakatsuji, X. Li, M. Caricato, A. V. Marenich, 
 J. Bloino, B. G. Janesko, R. Gomperts, B. Mennucci, H. P. Hratchian, 
 J. V. Ortiz, A. F. Izmaylov, J. L. Sonnenberg, D. Williams-Young, 
 F. Ding, F. Lipparini, F. Egidi, J. Goings, B. Peng, A. Petrone, 
 T. Henderson, D. Ranasinghe, V. G. Zakrzewski, J. Gao, N. Rega, 
 G. Zheng, W. Liang, M. Hada, M. Ehara, K. Toyota, R. Fukuda, 
 J. Hasegawa, M. Ishida, T. Nakajima, Y. Honda, O. Kitao, H. Nakai, 
 T. Vreven, K. Throssell, J. A. Montgomery, Jr., J. E. Peralta, 
 F. Ogliaro, M. J. Bearpark, J. J. Heyd, E. N. Brothers, K. N. Kudin, 
 V. N. Staroverov, T. A. Keith, R. Kobayashi, J. Normand, 
 K. Raghavachari, A. P. Rendell, J. C. Burant, S. S. Iyengar, 
 J. Tomasi, M. Cossi, J. M. Millam, M. Klene, C. Adamo, R. Cammi, 
 J. W. Ochterski, R. L. Martin, K. Morokuma, O. Farkas, 
 J. B. Foresman, and D. J. Fox, Gaussian, Inc., Wallingford CT, 2019.
 
 ******************************************
 Gaussian 16:  ES64L-G16RevC.01  3-Jul-2019
                10-Jul-2025 
 ******************************************
 %chk=Cl2F2_iso2_wat_M05-2x.chk
 %mem=20GB
 %nprocshared=20
 Will use up to   20 processors via shared memory.
 ---------------------------------------
 #P M052X/6-31G* scrf(SMD,solvent=water)
 ---------------------------------------
 1/38=1,172=1/1;
 2/12=2,17=6,18=5,40=1/2;
 3/5=1,6=6,7=1,11=2,25=1,30=1,70=32201,72=1,74=-38/1,2,3;
 4//1;
 5/5=2,38=5,53=1/2;
 6/7=2,8=2,9=2,10=2,28=1/1;
 99/5=1,9=1/99;
 Leave Link    1 at Thu Jul 10 14:47:15 2025, MaxMem=  2684354560 cpu:               1.9 elap:               0.1
 (Enter /apps/gaussian/g16c01/g16/l101.exe)
 ---------------------
 Cl2F2_iso2_wat_M05-2x
 ---------------------
 Symbolic Z-matrix:
 Charge =  0 Multiplicity = 1
 C                     0.22872   0.       -0.00003 
 C                    -1.09885   0.       -0.00003 
 Cl                    1.1246   -1.48052   0.00002 
 Cl                    1.1246    1.48052  -0.00002 
 F                    -1.8342    1.08904  -0.00001 
 F                    -1.8342   -1.08903   0.00005 
 
 ITRead=  0  0  0  0  0  0
 MicOpt= -1 -1 -1 -1 -1 -1
 NAtoms=      6 NQM=        6 NQMF=       0 NMMI=      0 NMMIF=      0
                NMic=       0 NMicF=      0.
                    Isotopes and Nuclear Properties:
 (Nuclear quadrupole moments (NQMom) in fm**2, nuclear magnetic moments (NMagM)
  in nuclear magnetons)

  Atom         1           2           3           4           5           6
 IAtWgt=          12          12          35          35          19          19
 AtmWgt=  12.0000000  12.0000000  34.9688527  34.9688527  18.9984033  18.9984033
 NucSpn=           0           0           3           3           1           1
 AtZEff=  -0.0000000  -0.0000000  -0.0000000  -0.0000000  -0.0000000  -0.0000000
 NQMom=    0.0000000   0.0000000  -8.1650000  -8.1650000   0.0000000   0.0000000
 NMagM=    0.0000000   0.0000000   0.8218740   0.8218740   2.6288670   2.6288670
 AtZNuc=   6.0000000   6.0000000  17.0000000  17.0000000   9.0000000   9.0000000
 Leave Link  101 at Thu Jul 10 14:47:17 2025, MaxMem=  2684354560 cpu:              19.6 elap:               2.0
 (Enter /apps/gaussian/g16c01/g16/l202.exe)
                          Input orientation:                          
 ---------------------------------------------------------------------
 Center     Atomic      Atomic             Coordinates (Angstroms)
 Number     Number       Type             X           Y           Z
 ---------------------------------------------------------------------
      1          6           0        0.228717    0.000001   -0.000029
      2          6           0       -1.098848    0.000002   -0.000033
      3         17           0        1.124596   -1.480522    0.000019
      4         17           0        1.124603    1.480517   -0.000018
      5          9           0       -1.834199    1.089038   -0.000011
      6          9           0       -1.834200   -1.089032    0.000052
 ---------------------------------------------------------------------
                    Distance matrix (angstroms):
                    1          2          3          4          5
     1  C    0.000000
     2  C    1.327565   0.000000
     3  Cl   1.730476   2.671265   0.000000
     4  Cl   1.730474   2.671265   2.961039   0.000000
     5  F    2.332729   1.314055   3.918814   2.984588   0.000000
     6  F    2.332728   1.314054   2.984583   3.918813   2.178070
                    6
     6  F    0.000000
 Stoichiometry    C2Cl2F2
 Framework group  C1[X(C2Cl2F2)]
 Deg. of freedom    12
 Full point group                 C1      NOp   1
 Largest Abelian subgroup         C1      NOp   1
 Largest concise Abelian subgroup C1      NOp   1
                         Standard orientation:                         
 ---------------------------------------------------------------------
 Center     Atomic      Atomic             Coordinates (Angstroms)
 Number     Number       Type             X           Y           Z
 ---------------------------------------------------------------------
      1          6           0        0.228717   -0.000002    0.000029
      2          6           0       -1.098848   -0.000001    0.000033
      3         17           0        1.124598    1.480520   -0.000019
      4         17           0        1.124601   -1.480519    0.000018
      5          9           0       -1.834201   -1.089036    0.000011
      6          9           0       -1.834199    1.089034   -0.000052
 ---------------------------------------------------------------------
 Rotational constants (GHZ):           2.5477455           2.1841500           1.1759893
 Leave Link  202 at Thu Jul 10 14:47:17 2025, MaxMem=  2684354560 cpu:               0.6 elap:               0.0
 (Enter /apps/gaussian/g16c01/g16/l301.exe)
 Standard basis: 6-31G(d) (6D, 7F)
 Ernie: Thresh=  0.10000D-02 Tol=  0.10000D-05 Strict=F.
 There are    98 symmetry adapted cartesian basis functions of A   symmetry.
 There are    98 symmetry adapted basis functions of A   symmetry.
    98 basis functions,   216 primitive gaussians,    98 cartesian basis functions
    32 alpha electrons       32 beta electrons
       nuclear repulsion energy       352.0403489438 Hartrees.
 IExCor= 3428 DFT=T Ex+Corr=M052X ExCW=0 ScaHFX=  0.560000
 ScaDFX=  0.440000  0.440000  1.000000  1.000000 ScalE2=  1.000000  1.000000
 IRadAn=      5 IRanWt=     -1 IRanGd=            0 ICorTp=0 IEmpDi=  4
 NAtoms=    6 NActive=    6 NUniq=    6 SFac= 1.00D+00 NAtFMM=   60 NAOKFM=F Big=F
 Integral buffers will be    131072 words long.
 Raffenetti 2 integral format.
 Two-electron integral symmetry is turned on.
 ------------------------------------------------------------------------------
 Polarizable Continuum Model (PCM)
 =================================
 Model                : PCM.
 Atomic radii         : SMD-Coulomb.
 Polarization charges : Total charges.
 Charge compensation  : None.
 Solution method      : On-the-fly selection.
 Cavity type          : VdW (van der Waals Surface) (Alpha=1.000).
 Cavity algorithm     : GePol (No added spheres)
                        Default sphere list used, NSphG=    6.
                        Lebedev-Laikov grids with approx.  5.0 points / Ang**2.
                        Smoothing algorithm: York/Karplus (Gamma=1.0000).
                        Polarization charges: spherical gaussians, with
                                              point-specific exponents (IZeta= 3).
                        Self-potential: point-specific (ISelfS= 7).
                        Self-field    : sphere-specific E.n sum rule (ISelfD= 2).
 Solvent              : Water, Eps=  78.355300 Eps(inf)=   1.777849
 ------------------------------------------------------------------------------
 Spheres list:
 ISph  on   Nord     Re0    Alpha      Xe            Ye            Ze
    1   C      1    1.8500  1.000      0.228717     -0.000002      0.000029
    2   C      2    1.8500  1.000     -1.098848     -0.000001      0.000033
    3  Cl      3    2.3800  1.000      1.124598      1.480520     -0.000019
    4  Cl      4    2.3800  1.000      1.124601     -1.480519      0.000018
    5   F      5    1.7300  1.000     -1.834201     -1.089036      0.000011
    6   F      6    1.7300  1.000     -1.834199      1.089034     -0.000052
 ------------------------------------------------------------------------------
 GePol: Number of generator spheres                  =       6
 GePol: Total number of spheres                      =       6
 GePol: Number of exposed spheres                    =       6 (100.00%)
 GePol: Number of points                             =     962
 GePol: Average weight of points                     =       0.15
 GePol: Minimum weight of points                     =   0.47D-07
 GePol: Maximum weight of points                     =    0.21501
 GePol: Number of points with low weight             =      10
 GePol: Fraction of low-weight points (<1% of avg)   =       1.04%
 GePol: Cavity surface area                          =    146.895 Ang**2
 GePol: Cavity volume                                =    136.603 Ang**3
 ------------------------------------------------------------------------------
 Atomic radii for non-electrostatic terms: SMD-CDS.
 ------------------------------------------------------------------------------
 PCM non-electrostatic energy =         0.0060186377 Hartrees.
 Nuclear repulsion after PCM non-electrostatic terms =      352.0463675815 Hartrees.
 Leave Link  301 at Thu Jul 10 14:47:17 2025, MaxMem=  2684354560 cpu:               1.4 elap:               0.1
 (Enter /apps/gaussian/g16c01/g16/l302.exe)
 NPDir=0 NMtPBC=     1 NCelOv=     1 NCel=       1 NClECP=     1 NCelD=      1
         NCelK=      1 NCelE2=     1 NClLst=     1 CellRange=     0.0.
 One-electron integrals computed using PRISM.
 One-electron integral symmetry used in STVInt
 NBasis=    98 RedAO= T EigKep=  3.01D-03  NBF=    98
 NBsUse=    98 1.00D-06 EigRej= -1.00D+00 NBFU=    98
 Precomputing XC quadrature grid using
 IXCGrd= 4 IRadAn=           5 IRanWt=          -1 IRanGd=           0 AccXCQ= 0.00D+00.
 Generated NRdTot=       0 NPtTot=           0 NUsed=           0 NTot=          32
 NSgBfM=    98    98    98    98    98 MxSgAt=     6 MxSgA2=     6.
 Leave Link  302 at Thu Jul 10 14:47:18 2025, MaxMem=  2684354560 cpu:               2.9 elap:               0.2
 (Enter /apps/gaussian/g16c01/g16/l303.exe)
 DipDrv:  MaxL=1.
 Leave Link  303 at Thu Jul 10 14:47:18 2025, MaxMem=  2684354560 cpu:               2.4 elap:               0.2
 (Enter /apps/gaussian/g16c01/g16/l401.exe)
 ExpMin= 1.43D-01 ExpMax= 2.52D+04 ExpMxC= 3.78D+03 IAcc=3 IRadAn=         5 AccDes= 0.00D+00
 Harris functional with IExCor= 1009 and IRadAn=       5 diagonalized for initial guess.
 HarFok:  IExCor= 1009 AccDes= 0.00D+00 IRadAn=         5 IDoV= 1 UseB2=F ITyADJ=14
 ICtDFT=  3500011 ScaDFX=  1.000000  1.000000  1.000000  1.000000
 FoFCou: FMM=F IPFlag=           0 FMFlag=      100000 FMFlg1=           0
         NFxFlg=           0 DoJE=T BraDBF=F KetDBF=T FulRan=T
         wScrn=  0.000000 ICntrl=       500 IOpCl=  0 I1Cent=   200000004 NGrid=           0
         NMat0=    1 NMatS0=      1 NMatT0=    0 NMatD0=    1 NMtDS0=    0 NMtDT0=    0
 Petite list used in FoFCou.
 Harris En= -1195.41164237302    
 JPrj=0 DoOrth=F DoCkMO=F.
 Leave Link  401 at Thu Jul 10 14:47:18 2025, MaxMem=  2684354560 cpu:               4.4 elap:               0.2
 (Enter /apps/gaussian/g16c01/g16/l502.exe)
 Keep R1 ints in memory in canonical form, NReq=30232002.
 FoFCou: FMM=F IPFlag=           0 FMFlag=           0 FMFlg1=           0
         NFxFlg=           0 DoJE=F BraDBF=F KetDBF=F FulRan=T
         wScrn=  0.000000 ICntrl=       600 IOpCl=  0 I1Cent=           0 NGrid=           0
         NMat0=    1 NMatS0=   4851 NMatT0=    0 NMatD0=    1 NMtDS0=    0 NMtDT0=    0
 Symmetry not used in FoFCou.
 Two-electron integral symmetry not used.
 Closed shell SCF:
 Using DIIS extrapolation, IDIIS=  1040.
 NGot=  2684354560 LenX=  2672563676 LenY=  2672553631
 Requested convergence on RMS density matrix=1.00D-08 within 128 cycles.
 Requested convergence on MAX density matrix=1.00D-06.
 Requested convergence on             energy=1.00D-06.
 No special actions if energy rises.

 Cycle   1  Pass 1  IDiag  1:
 Inv3:  Mode=1 IEnd=     2776332.
 Iteration    1 A*A^-1 deviation from unit magnitude is 2.89D-15 for    945.
 Iteration    1 A*A^-1 deviation from orthogonality  is 1.13D-15 for    960    959.
 Iteration    1 A^-1*A deviation from unit magnitude is 2.44D-15 for    945.
 Iteration    1 A^-1*A deviation from orthogonality  is 1.53D-15 for    594    321.
 E= -1196.11984698159    
 DIIS: error= 2.76D-02 at cycle   1 NSaved=   1.
 NSaved= 1 IEnMin= 1 EnMin= -1196.11984698159     IErMin= 1 ErrMin= 2.76D-02
 ErrMax= 2.76D-02  0.00D+00 EMaxC= 1.00D-01 BMatC= 7.18D-02 BMatP= 7.18D-02
 IDIUse=3 WtCom= 7.24D-01 WtEn= 2.76D-01
 Coeff-Com:  0.100D+01
 Coeff-En:   0.100D+01
 Coeff:      0.100D+01
 Gap=     0.375 Goal=   None    Shift=    0.000
 GapD=    0.375 DampG=1.000 DampE=0.500 DampFc=0.5000 IDamp=-1.
 Damping current iteration by 5.00D-01
 RMSDP=3.29D-03 MaxDP=7.59D-02              OVMax= 6.68D-02

 Cycle   2  Pass 1  IDiag  1:
 E= -1196.13753354596     Delta-E=       -0.017686564366 Rises=F Damp=T
 DIIS: error= 1.12D-02 at cycle   2 NSaved=   2.
 NSaved= 2 IEnMin= 2 EnMin= -1196.13753354596     IErMin= 2 ErrMin= 1.12D-02
 ErrMax= 1.12D-02  0.00D+00 EMaxC= 1.00D-01 BMatC= 1.04D-02 BMatP= 7.18D-02
 IDIUse=3 WtCom= 8.88D-01 WtEn= 1.12D-01
 Coeff-Com: -0.354D+00 0.135D+01
 Coeff-En:   0.000D+00 0.100D+01
 Coeff:     -0.314D+00 0.131D+01
 Gap=     0.363 Goal=   None    Shift=    0.000
 RMSDP=9.51D-04 MaxDP=9.20D-03 DE=-1.77D-02 OVMax= 3.12D-02

 Cycle   3  Pass 1  IDiag  1:
 E= -1196.15298164259     Delta-E=       -0.015448096633 Rises=F Damp=F
 DIIS: error= 3.74D-03 at cycle   3 NSaved=   3.
 NSaved= 3 IEnMin= 3 EnMin= -1196.15298164259     IErMin= 3 ErrMin= 3.74D-03
 ErrMax= 3.74D-03  0.00D+00 EMaxC= 1.00D-01 BMatC= 1.64D-03 BMatP= 1.04D-02
 IDIUse=3 WtCom= 9.63D-01 WtEn= 3.74D-02
 Coeff-Com: -0.201D+00 0.458D+00 0.743D+00
 Coeff-En:   0.000D+00 0.000D+00 0.100D+01
 Coeff:     -0.193D+00 0.441D+00 0.752D+00
 Gap=     0.361 Goal=   None    Shift=    0.000
 RMSDP=3.09D-04 MaxDP=5.03D-03 DE=-1.54D-02 OVMax= 5.46D-03

 Cycle   4  Pass 1  IDiag  1:
 E= -1196.15399367445     Delta-E=       -0.001012031857 Rises=F Damp=F
 DIIS: error= 9.67D-04 at cycle   4 NSaved=   4.
 NSaved= 4 IEnMin= 4 EnMin= -1196.15399367445     IErMin= 4 ErrMin= 9.67D-04
 ErrMax= 9.67D-04  0.00D+00 EMaxC= 1.00D-01 BMatC= 8.20D-05 BMatP= 1.64D-03
 IDIUse=3 WtCom= 9.90D-01 WtEn= 9.67D-03
 Coeff-Com: -0.644D-01 0.133D+00 0.297D+00 0.634D+00
 Coeff-En:   0.000D+00 0.000D+00 0.000D+00 0.100D+01
 Coeff:     -0.638D-01 0.132D+00 0.294D+00 0.638D+00
 Gap=     0.359 Goal=   None    Shift=    0.000
 RMSDP=1.05D-04 MaxDP=3.07D-03 DE=-1.01D-03 OVMax= 4.13D-03

 Cycle   5  Pass 1  IDiag  1:
 E= -1196.15406301400     Delta-E=       -0.000069339556 Rises=F Damp=F
 DIIS: error= 2.53D-04 at cycle   5 NSaved=   5.
 NSaved= 5 IEnMin= 5 EnMin= -1196.15406301400     IErMin= 5 ErrMin= 2.53D-04
 ErrMax= 2.53D-04  0.00D+00 EMaxC= 1.00D-01 BMatC= 5.99D-06 BMatP= 8.20D-05
 IDIUse=3 WtCom= 9.97D-01 WtEn= 2.53D-03
 Coeff-Com: -0.611D-02 0.857D-02 0.420D-01 0.248D+00 0.707D+00
 Coeff-En:   0.000D+00 0.000D+00 0.000D+00 0.000D+00 0.100D+01
 Coeff:     -0.609D-02 0.855D-02 0.419D-01 0.248D+00 0.708D+00
 Gap=     0.359 Goal=   None    Shift=    0.000
 RMSDP=2.57D-05 MaxDP=6.27D-04 DE=-6.93D-05 OVMax= 7.56D-04

 Cycle   6  Pass 1  IDiag  1:
 E= -1196.15406837184     Delta-E=       -0.000005357837 Rises=F Damp=F
 DIIS: error= 3.54D-05 at cycle   6 NSaved=   6.
 NSaved= 6 IEnMin= 6 EnMin= -1196.15406837184     IErMin= 6 ErrMin= 3.54D-05
 ErrMax= 3.54D-05  0.00D+00 EMaxC= 1.00D-01 BMatC= 2.34D-07 BMatP= 5.99D-06
 IDIUse=1 WtCom= 1.00D+00 WtEn= 0.00D+00
 Coeff-Com:  0.417D-02-0.939D-02-0.155D-01 0.219D-01 0.147D+00 0.852D+00
 Coeff:      0.417D-02-0.939D-02-0.155D-01 0.219D-01 0.147D+00 0.852D+00
 Gap=     0.359 Goal=   None    Shift=    0.000
 RMSDP=8.79D-06 MaxDP=1.82D-04 DE=-5.36D-06 OVMax= 3.06D-04

 Cycle   7  Pass 1  IDiag  1:
 E= -1196.15406858688     Delta-E=       -0.000000215038 Rises=F Damp=F
 DIIS: error= 2.54D-05 at cycle   7 NSaved=   7.
 NSaved= 7 IEnMin= 7 EnMin= -1196.15406858688     IErMin= 7 ErrMin= 2.54D-05
 ErrMax= 2.54D-05  0.00D+00 EMaxC= 1.00D-01 BMatC= 8.59D-08 BMatP= 2.34D-07
 IDIUse=1 WtCom= 1.00D+00 WtEn= 0.00D+00
 Coeff-Com:  0.209D-02-0.432D-02-0.938D-02-0.848D-02-0.772D-02 0.421D+00
 Coeff-Com:  0.607D+00
 Coeff:      0.209D-02-0.432D-02-0.938D-02-0.848D-02-0.772D-02 0.421D+00
 Coeff:      0.607D+00
 Gap=     0.359 Goal=   None    Shift=    0.000
 RMSDP=3.30D-06 MaxDP=7.25D-05 DE=-2.15D-07 OVMax= 1.01D-04

 Cycle   8  Pass 1  IDiag  1:
 E= -1196.15406866449     Delta-E=       -0.000000077617 Rises=F Damp=F
 DIIS: error= 5.02D-06 at cycle   8 NSaved=   8.
 NSaved= 8 IEnMin= 8 EnMin= -1196.15406866449     IErMin= 8 ErrMin= 5.02D-06
 ErrMax= 5.02D-06  0.00D+00 EMaxC= 1.00D-01 BMatC= 3.19D-09 BMatP= 8.59D-08
 IDIUse=1 WtCom= 1.00D+00 WtEn= 0.00D+00
 Coeff-Com:  0.338D-03-0.655D-03-0.202D-02-0.540D-02-0.218D-01 0.625D-01
 Coeff-Com:  0.187D+00 0.780D+00
 Coeff:      0.338D-03-0.655D-03-0.202D-02-0.540D-02-0.218D-01 0.625D-01
 Coeff:      0.187D+00 0.780D+00
 Gap=     0.359 Goal=   None    Shift=    0.000
 RMSDP=9.51D-07 MaxDP=1.17D-05 DE=-7.76D-08 OVMax= 1.89D-05

 Cycle   9  Pass 1  IDiag  1:
 E= -1196.15406866814     Delta-E=       -0.000000003642 Rises=F Damp=F
 DIIS: error= 1.07D-06 at cycle   9 NSaved=   9.
 NSaved= 9 IEnMin= 9 EnMin= -1196.15406866814     IErMin= 9 ErrMin= 1.07D-06
 ErrMax= 1.07D-06  0.00D+00 EMaxC= 1.00D-01 BMatC= 1.33D-10 BMatP= 3.19D-09
 IDIUse=1 WtCom= 1.00D+00 WtEn= 0.00D+00
 Coeff-Com: -0.124D-03 0.265D-03 0.569D-03 0.625D-03-0.323D-03-0.174D-01
 Coeff-Com: -0.525D-01 0.113D-01 0.106D+01
 Coeff:     -0.124D-03 0.265D-03 0.569D-03 0.625D-03-0.323D-03-0.174D-01
 Coeff:     -0.525D-01 0.113D-01 0.106D+01
 Gap=     0.359 Goal=   None    Shift=    0.000
 RMSDP=2.10D-07 MaxDP=3.12D-06 DE=-3.64D-09 OVMax= 5.05D-06

 Cycle  10  Pass 1  IDiag  1:
 E= -1196.15406866831     Delta-E=       -0.000000000174 Rises=F Damp=F
 DIIS: error= 1.28D-07 at cycle  10 NSaved=  10.
 NSaved=10 IEnMin=10 EnMin= -1196.15406866831     IErMin=10 ErrMin= 1.28D-07
 ErrMax= 1.28D-07  0.00D+00 EMaxC= 1.00D-01 BMatC= 2.63D-12 BMatP= 1.33D-10
 IDIUse=1 WtCom= 1.00D+00 WtEn= 0.00D+00
 Coeff-Com: -0.761D-05 0.133D-04 0.609D-04 0.214D-03 0.445D-03-0.115D-02
 Coeff-Com: -0.801D-02-0.224D-01 0.224D-01 0.101D+01
 Coeff:     -0.761D-05 0.133D-04 0.609D-04 0.214D-03 0.445D-03-0.115D-02
 Coeff:     -0.801D-02-0.224D-01 0.224D-01 0.101D+01
 Gap=     0.359 Goal=   None    Shift=    0.000
 RMSDP=3.56D-08 MaxDP=8.54D-07 DE=-1.74D-10 OVMax= 7.72D-07

 Cycle  11  Pass 1  IDiag  1:
 E= -1196.15406866832     Delta-E=       -0.000000000007 Rises=F Damp=F
 DIIS: error= 2.69D-08 at cycle  11 NSaved=  11.
 NSaved=11 IEnMin=11 EnMin= -1196.15406866832     IErMin=11 ErrMin= 2.69D-08
 ErrMax= 2.69D-08  0.00D+00 EMaxC= 1.00D-01 BMatC= 1.26D-13 BMatP= 2.63D-12
 IDIUse=1 WtCom= 1.00D+00 WtEn= 0.00D+00
 Coeff-Com:  0.409D-05-0.860D-05-0.146D-04-0.539D-06-0.175D-04 0.641D-03
 Coeff-Com:  0.815D-03-0.272D-02-0.347D-01 0.885D-01 0.947D+00
 Coeff:      0.409D-05-0.860D-05-0.146D-04-0.539D-06-0.175D-04 0.641D-03
 Coeff:      0.815D-03-0.272D-02-0.347D-01 0.885D-01 0.947D+00
 Gap=     0.359 Goal=   None    Shift=    0.000
 RMSDP=7.17D-09 MaxDP=1.76D-07 DE=-6.82D-12 OVMax= 1.08D-07

 Error on total polarization charges =  0.00385
 SCF Done:  E(RM052X) =  -1196.15406867     A.U. after   11 cycles
            NFock= 11  Conv=0.72D-08     -V/T= 2.0041
 KE= 1.191309720469D+03 PE=-3.542614013452D+03 EE= 8.031038567326D+02
 SMD-CDS (non-electrostatic) energy       (kcal/mol) =       3.78
 (included in total energy above)
 Leave Link  502 at Thu Jul 10 14:47:21 2025, MaxMem=  2684354560 cpu:              63.7 elap:               3.4
 (Enter /apps/gaussian/g16c01/g16/l601.exe)
 Copying SCF densities to generalized density rwf, IOpCl= 0 IROHF=0.

 **********************************************************************

            Population analysis using the SCF Density.

 **********************************************************************

 Orbital symmetries:
       Occupied  (A) (A) (A) (A) (A) (A) (A) (A) (A) (A) (A) (A)
                 (A) (A) (A) (A) (A) (A) (A) (A) (A) (A) (A) (A)
                 (A) (A) (A) (A) (A) (A) (A) (A)
       Virtual   (A) (A) (A) (A) (A) (A) (A) (A) (A) (A) (A) (A)
                 (A) (A) (A) (A) (A) (A) (A) (A) (A) (A) (A) (A)
                 (A) (A) (A) (A) (A) (A) (A) (A) (A) (A) (A) (A)
                 (A) (A) (A) (A) (A) (A) (A) (A) (A) (A) (A) (A)
                 (A) (A) (A) (A) (A) (A) (A) (A) (A) (A) (A) (A)
                 (A) (A) (A) (A) (A) (A)
 The electronic state is 1-A.
 Alpha  occ. eigenvalues -- -102.80264-102.80264 -25.36918 -25.36917 -10.78633
 Alpha  occ. eigenvalues --  -10.70916  -9.84731  -9.84729  -7.57384  -7.57382
 Alpha  occ. eigenvalues --   -7.56693  -7.56693  -7.56675  -7.56674  -1.45260
 Alpha  occ. eigenvalues --   -1.38846  -1.04621  -0.95557  -0.87658  -0.74608
 Alpha  occ. eigenvalues --   -0.69561  -0.64991  -0.62901  -0.56599  -0.55636
 Alpha  occ. eigenvalues --   -0.55257  -0.52687  -0.48619  -0.42566  -0.41138
 Alpha  occ. eigenvalues --   -0.39572  -0.31492
 Alpha virt. eigenvalues --    0.04426   0.04802   0.06307   0.20222   0.27598
 Alpha virt. eigenvalues --    0.32979   0.36463   0.41603   0.45183   0.45545
 Alpha virt. eigenvalues --    0.46406   0.51232   0.51610   0.54659   0.55118
 Alpha virt. eigenvalues --    0.57779   0.63892   0.65549   0.67471   0.83307
 Alpha virt. eigenvalues --    0.84898   0.85316   0.87705   0.91590   0.91676
 Alpha virt. eigenvalues --    0.92727   1.02558   1.07407   1.07545   1.10688
 Alpha virt. eigenvalues --    1.14229   1.18013   1.23199   1.26830   1.34289
 Alpha virt. eigenvalues --    1.36737   1.41537   1.45096   1.45456   1.48532
 Alpha virt. eigenvalues --    1.71724   1.79696   1.80766   1.83803   1.85085
 Alpha virt. eigenvalues --    1.88792   2.00681   2.00832   2.04220   2.06862
 Alpha virt. eigenvalues --    2.09524   2.17539   2.22043   2.49767   2.59578
 Alpha virt. eigenvalues --    2.60638   2.78330   3.04108   3.13943   3.14430
 Alpha virt. eigenvalues --    4.02323   4.15566   4.33333   4.42183   4.73150
 Alpha virt. eigenvalues --    5.19049
          Condensed to atoms (all electrons):
               1          2          3          4          5          6
     1  C    5.667358   0.430080   0.218502   0.218502  -0.071253  -0.071253
     2  C    0.430080   4.331106  -0.069206  -0.069206   0.347161   0.347161
     3  Cl   0.218502  -0.069206  16.820675  -0.057085   0.001301   0.004960
     4  Cl   0.218502  -0.069206  -0.057085  16.820673   0.004960   0.001301
     5  F   -0.071253   0.347161   0.001301   0.004960   8.984522  -0.040352
     6  F   -0.071253   0.347161   0.004960   0.001301  -0.040352   8.984520
 Mulliken charges:
               1
     1  C   -0.391936
     2  C    0.682905
     3  Cl   0.080853
     4  Cl   0.080855
     5  F   -0.226339
     6  F   -0.226338
 Sum of Mulliken charges =  -0.00000
 Mulliken charges with hydrogens summed into heavy atoms:
               1
     1  C   -0.391936
     2  C    0.682905
     3  Cl   0.080853
     4  Cl   0.080855
     5  F   -0.226339
     6  F   -0.226338
 Electronic spatial extent (au):  <R**2>=            840.7132
 Charge=             -0.0000 electrons
 Dipole moment (field-independent basis, Debye):
    X=             -0.4779    Y=             -0.0000    Z=              0.0001  Tot=              0.4779
 Quadrupole moment (field-independent basis, Debye-Ang):
   XX=            -45.8031   YY=            -45.5878   ZZ=            -45.1804
   XY=             -0.0000   XZ=             -0.0002   YZ=              0.0000
 Traceless Quadrupole moment (field-independent basis, Debye-Ang):
   XX=             -0.2794   YY=             -0.0640   ZZ=              0.3434
   XY=             -0.0000   XZ=             -0.0002   YZ=              0.0000
 Octapole moment (field-independent basis, Debye-Ang**2):
  XXX=            -17.2657  YYY=             -0.0000  ZZZ=             -0.0005  XYY=             -0.8804
  XXY=             -0.0000  XXZ=             -0.0001  XZZ=             -8.2895  YZZ=             -0.0000
  YYZ=             -0.0003  XYZ=             -0.0001
 Hexadecapole moment (field-independent basis, Debye-Ang**3):
 XXXX=           -460.0859 YYYY=           -413.9433 ZZZZ=            -43.4490 XXXY=             -0.0001
 XXXZ=             -0.0010 YYYX=             -0.0000 YYYZ=              0.0027 ZZZX=             -0.0006
 ZZZY=              0.0031 XXYY=           -140.4779 XXZZ=            -83.1678 YYZZ=            -81.5769
 XXYZ=              0.0010 YYXZ=             -0.0005 ZZXY=             -0.0000
 N-N= 3.520463675815D+02 E-N=-3.542614010092D+03  KE= 1.191309720469D+03
 No NMR shielding tensors so no spin-rotation constants.
 Leave Link  601 at Thu Jul 10 14:47:22 2025, MaxMem=  2684354560 cpu:               8.5 elap:               0.5
 (Enter /apps/gaussian/g16c01/g16/l9999.exe)
 Unable to Open any file for archive entry.
 1\1\GINC-GADI-CPU-CLX-0270\SP\RM052X\6-31G(d)\C2Cl2F2\YR9300\10-Jul-20
 25\0\\#P M052X/6-31G* scrf(SMD,solvent=water)\\Cl2F2_iso2_wat_M05-2x\\
 0,1\C,0,0.228717,0.000001,-0.000029\C,0,-1.098848,0.000002,-0.000033\C
 l,0,1.124596,-1.480522,0.000019\Cl,0,1.124603,1.480517,-0.000018\F,0,-
 1.834199,1.089038,-0.000011\F,0,-1.8342,-1.089032,0.000052\\Version=ES
 64L-G16RevC.01\State=1-A\HF=-1196.1540687\RMSD=7.173e-09\Dipole=-0.188
 0041,0.000003,-0.000023\Quadrupole=-0.2076983,-0.047607,0.2553053,0.00
 00151,0.0001135,0.0000253\PG=C01 [X(C2Cl2F2)]\\@
 The archive entry for this job was punched.


 10 WHATSOEVER THY HAND FINDETH TO DO, DO IT WITH THY  
 MIGHT. FOR THERE IS NO WORK, NOR DEVICE, NOR KNOWLEDGE, NOR  
 WISDOM, IN THE GRAVE, WHITHER THOU GOEST.                    
 11 I RETURNED AND SAW UNDER THE SUN, THAT THE RACE IS NOT TO 
 THE SWIFT, NOR THE BATTLE TO THE STRONG, NEITHER YET BREAD TO
 THE WISE, NOR YET RICHES TO MEN OF UNDERSTANDING, NOR YET    
 FAVOR TO MEN OF SKILL. BUT TIME AND CHANCE HAPPEN TO THEM ALL.
 12 FOR MAN ALSO KNOWETH NOT HIS TIME. AS THE FISHES   
 THAT ARE TAKEN IN AN EVIL NET, AND AS THE BIRDS THAT ARE     
 CAUGHT IN THE SNARE. SO ARE THE SONS OF MEN SNARED IN AN EVIL
 TIME, WHEN IT FALLETH SUDDENLY UPON THEM.
                                         ECCLESIASTES 9
 Job cpu time:       0 days  0 hours  1 minutes 46.4 seconds.
 Elapsed time:       0 days  0 hours  0 minutes  6.7 seconds.
 File lengths (MBytes):  RWF=     22 Int=      0 D2E=      0 Chk=      2 Scr=      1
 Normal termination of Gaussian 16 at Thu Jul 10 14:47:22 2025.
