 Entering Gaussian System, Link 0=g16
 Initial command:
 /apps/gaussian/g16c01/g16/l1.exe "/jobfs/145005434.gadi-pbs/Gau-11113.inp" -scrdir="/jobfs/145005434.gadi-pbs/"
 Entering Link 1 = /apps/gaussian/g16c01/g16/l1.exe PID=     11124.
  
 Copyright (c) 1988-2019, Gaussian, Inc.  All Rights Reserved.
  
 This is part of the Gaussian(R) 16 program.  It is based on
 the Gaussian(R) 09 system (copyright 2009, Gaussian, Inc.),
 the Gaussian(R) 03 system (copyright 2003, Gaussian, Inc.),
 the Gaussian(R) 98 system (copyright 1998, Gaussian, Inc.),
 the Gaussian(R) 94 system (copyright 1995, Gaussian, Inc.),
 the Gaussian 92(TM) system (copyright 1992, Gaussian, Inc.),
 the Gaussian 90(TM) system (copyright 1990, Gaussian, Inc.),
 the Gaussian 88(TM) system (copyright 1988, Gaussian, Inc.),
 the Gaussian 86(TM) system (copyright 1986, Carnegie Mellon
 University), and the Gaussian 82(TM) system (copyright 1983,
 Carnegie Mellon University). Gaussian is a federally registered
 trademark of Gaussian, Inc.
  
 This software contains proprietary and confidential information,
 including trade secrets, belonging to Gaussian, Inc.
  
 This software is provided under written license and may be
 used, copied, transmitted, or stored only in accord with that
 written license.
  
 The following legend is applicable only to US Government
 contracts under FAR:
  
                    RESTRICTED RIGHTS LEGEND
  
 Use, reproduction and disclosure by the US Government is
 subject to restrictions as set forth in subparagraphs (a)
 and (c) of the Commercial Computer Software - Restricted
 Rights clause in FAR 52.227-19.
  
 Gaussian, Inc.
 340 Quinnipiac St., Bldg. 40, Wallingford CT 06492
  
  
 ---------------------------------------------------------------
 Warning -- This program may not be used in any manner that
 competes with the business of Gaussian, Inc. or will provide
 assistance to any competitor of Gaussian, Inc.  The licensee
 of this program is prohibited from giving any competitor of
 Gaussian, Inc. access to this program.  By using this program,
 the user acknowledges that Gaussian, Inc. is engaged in the
 business of creating and licensing software in the field of
 computational chemistry and represents and warrants to the
 licensee that it is not a competitor of Gaussian, Inc. and that
 it will not use this program in any manner prohibited above.
 ---------------------------------------------------------------
  

 Cite this work as:
 Gaussian 16, Revision C.01,
 M. J. Frisch, G. W. Trucks, H. B. Schlegel, G. E. Scuseria, 
 M. A. Robb, J. R. Cheeseman, G. Scalmani, V. Barone, 
 G. A. Petersson, H. Nakatsuji, X. Li, M. Caricato, A. V. Marenich, 
 J. Bloino, B. G. Janesko, R. Gomperts, B. Mennucci, H. P. Hratchian, 
 J. V. Ortiz, A. F. Izmaylov, J. L. Sonnenberg, D. Williams-Young, 
 F. Ding, F. Lipparini, F. Egidi, J. Goings, B. Peng, A. Petrone, 
 T. Henderson, D. Ranasinghe, V. G. Zakrzewski, J. Gao, N. Rega, 
 G. Zheng, W. Liang, M. Hada, M. Ehara, K. Toyota, R. Fukuda, 
 J. Hasegawa, M. Ishida, T. Nakajima, Y. Honda, O. Kitao, H. Nakai, 
 T. Vreven, K. Throssell, J. A. Montgomery, Jr., J. E. Peralta, 
 F. Ogliaro, M. J. Bearpark, J. J. Heyd, E. N. Brothers, K. N. Kudin, 
 V. N. Staroverov, T. A. Keith, R. Kobayashi, J. Normand, 
 K. Raghavachari, A. P. Rendell, J. C. Burant, S. S. Iyengar, 
 J. Tomasi, M. Cossi, J. M. Millam, M. Klene, C. Adamo, R. Cammi, 
 J. W. Ochterski, R. L. Martin, K. Morokuma, O. Farkas, 
 J. B. Foresman, and D. J. Fox, Gaussian, Inc., Wallingford CT, 2019.
 
 ******************************************
 Gaussian 16:  ES64L-G16RevC.01  3-Jul-2019
                10-Jul-2025 
 ******************************************
 %chk=Cl2F2_iso2_oct_M05-2x.chk
 %mem=20GB
 %nprocshared=20
 Will use up to   20 processors via shared memory.
 -------------------------------------------
 #P M052X/6-31G* scrf(SMD,solvent=n-octanol)
 -------------------------------------------
 1/38=1,172=1/1;
 2/12=2,17=6,18=5,40=1/2;
 3/5=1,6=6,7=1,11=2,25=1,30=1,70=32201,72=25,74=-38/1,2,3;
 4//1;
 5/5=2,38=5,53=25/2;
 6/7=2,8=2,9=2,10=2,28=1/1;
 99/5=1,9=1/99;
 Leave Link    1 at Thu Jul 10 13:58:03 2025, MaxMem=  2684354560 cpu:               1.1 elap:               0.1
 (Enter /apps/gaussian/g16c01/g16/l101.exe)
 ---------------------
 Cl2F2_iso2_oct_M05-2x
 ---------------------
 Symbolic Z-matrix:
 Charge =  0 Multiplicity = 1
 C                     0.22897   0.       -0.00003 
 C                    -1.09887   0.       -0.00003 
 Cl                    1.12477  -1.48081   0.00002 
 Cl                    1.12478   1.48081  -0.00002 
 F                    -1.8346    1.08916  -0.00001 
 F                    -1.8346   -1.08916   0.00005 
 
 ITRead=  0  0  0  0  0  0
 MicOpt= -1 -1 -1 -1 -1 -1
 NAtoms=      6 NQM=        6 NQMF=       0 NMMI=      0 NMMIF=      0
                NMic=       0 NMicF=      0.
                    Isotopes and Nuclear Properties:
 (Nuclear quadrupole moments (NQMom) in fm**2, nuclear magnetic moments (NMagM)
  in nuclear magnetons)

  Atom         1           2           3           4           5           6
 IAtWgt=          12          12          35          35          19          19
 AtmWgt=  12.0000000  12.0000000  34.9688527  34.9688527  18.9984033  18.9984033
 NucSpn=           0           0           3           3           1           1
 AtZEff=  -0.0000000  -0.0000000  -0.0000000  -0.0000000  -0.0000000  -0.0000000
 NQMom=    0.0000000   0.0000000  -8.1650000  -8.1650000   0.0000000   0.0000000
 NMagM=    0.0000000   0.0000000   0.8218740   0.8218740   2.6288670   2.6288670
 AtZNuc=   6.0000000   6.0000000  17.0000000  17.0000000   9.0000000   9.0000000
 Leave Link  101 at Thu Jul 10 13:58:03 2025, MaxMem=  2684354560 cpu:               7.2 elap:               0.4
 (Enter /apps/gaussian/g16c01/g16/l202.exe)
                          Input orientation:                          
 ---------------------------------------------------------------------
 Center     Atomic      Atomic             Coordinates (Angstroms)
 Number     Number       Type             X           Y           Z
 ---------------------------------------------------------------------
      1          6           0        0.228967    0.000001   -0.000029
      2          6           0       -1.098866    0.000002   -0.000034
      3         17           0        1.124767   -1.480809    0.000020
      4         17           0        1.124775    1.480805   -0.000020
      5          9           0       -1.834600    1.089165   -0.000009
      6          9           0       -1.834602   -1.089160    0.000049
 ---------------------------------------------------------------------
                    Distance matrix (angstroms):
                    1          2          3          4          5
     1  C    0.000000
     2  C    1.327833   0.000000
     3  Cl   1.730681   2.671581   0.000000
     4  Cl   1.730680   2.671583   2.961614   0.000000
     5  F    2.333364   1.314375   3.919518   2.985177   0.000000
     6  F    2.333364   1.314375   2.985172   3.919519   2.178325
                    6
     6  F    0.000000
 Stoichiometry    C2Cl2F2
 Framework group  C1[X(C2Cl2F2)]
 Deg. of freedom    12
 Full point group                 C1      NOp   1
 Largest Abelian subgroup         C1      NOp   1
 Largest concise Abelian subgroup C1      NOp   1
                         Standard orientation:                         
 ---------------------------------------------------------------------
 Center     Atomic      Atomic             Coordinates (Angstroms)
 Number     Number       Type             X           Y           Z
 ---------------------------------------------------------------------
      1          6           0        0.228967   -0.000000    0.000029
      2          6           0       -1.098866   -0.000006    0.000034
      3         17           0        1.124762    1.480813   -0.000020
      4         17           0        1.124780   -1.480801    0.000020
      5          9           0       -1.834596   -1.089171    0.000009
      6          9           0       -1.834606    1.089154   -0.000049
 ---------------------------------------------------------------------
 Rotational constants (GHZ):           2.5468455           2.1833500           1.1755656
 Leave Link  202 at Thu Jul 10 13:58:03 2025, MaxMem=  2684354560 cpu:               0.9 elap:               0.1
 (Enter /apps/gaussian/g16c01/g16/l301.exe)
 Standard basis: 6-31G(d) (6D, 7F)
 Ernie: Thresh=  0.10000D-02 Tol=  0.10000D-05 Strict=F.
 There are    98 symmetry adapted cartesian basis functions of A   symmetry.
 There are    98 symmetry adapted basis functions of A   symmetry.
    98 basis functions,   216 primitive gaussians,    98 cartesian basis functions
    32 alpha electrons       32 beta electrons
       nuclear repulsion energy       351.9775150383 Hartrees.
 IExCor= 3428 DFT=T Ex+Corr=M052X ExCW=0 ScaHFX=  0.560000
 ScaDFX=  0.440000  0.440000  1.000000  1.000000 ScalE2=  1.000000  1.000000
 IRadAn=      5 IRanWt=     -1 IRanGd=            0 ICorTp=0 IEmpDi=  4
 NAtoms=    6 NActive=    6 NUniq=    6 SFac= 1.00D+00 NAtFMM=   60 NAOKFM=F Big=F
 Integral buffers will be    131072 words long.
 Raffenetti 2 integral format.
 Two-electron integral symmetry is turned on.
 ------------------------------------------------------------------------------
 Polarizable Continuum Model (PCM)
 =================================
 Model                : PCM.
 Atomic radii         : SMD-Coulomb.
 Polarization charges : Total charges.
 Charge compensation  : None.
 Solution method      : On-the-fly selection.
 Cavity type          : VdW (van der Waals Surface) (Alpha=1.000).
 Cavity algorithm     : GePol (No added spheres)
                        Default sphere list used, NSphG=    6.
                        Lebedev-Laikov grids with approx.  5.0 points / Ang**2.
                        Smoothing algorithm: York/Karplus (Gamma=1.0000).
                        Polarization charges: spherical gaussians, with
                                              point-specific exponents (IZeta= 3).
                        Self-potential: point-specific (ISelfS= 7).
                        Self-field    : sphere-specific E.n sum rule (ISelfD= 2).
 Solvent              : n-Octanol, Eps=   9.862900 Eps(inf)=   2.043470
 ------------------------------------------------------------------------------
 Spheres list:
 ISph  on   Nord     Re0    Alpha      Xe            Ye            Ze
    1   C      1    1.8500  1.000      0.228967     -0.000000      0.000029
    2   C      2    1.8500  1.000     -1.098866     -0.000006      0.000034
    3  Cl      3    2.3800  1.000      1.124762      1.480813     -0.000020
    4  Cl      4    2.3800  1.000      1.124780     -1.480801      0.000020
    5   F      5    1.7300  1.000     -1.834596     -1.089171      0.000009
    6   F      6    1.7300  1.000     -1.834606      1.089154     -0.000049
 ------------------------------------------------------------------------------
 GePol: Number of generator spheres                  =       6
 GePol: Total number of spheres                      =       6
 GePol: Number of exposed spheres                    =       6 (100.00%)
 GePol: Number of points                             =     962
 GePol: Average weight of points                     =       0.15
 GePol: Minimum weight of points                     =   0.43D-07
 GePol: Maximum weight of points                     =    0.21501
 GePol: Number of points with low weight             =      10
 GePol: Fraction of low-weight points (<1% of avg)   =       1.04%
 GePol: Cavity surface area                          =    146.912 Ang**2
 GePol: Cavity volume                                =    136.618 Ang**3
 ------------------------------------------------------------------------------
 Atomic radii for non-electrostatic terms: SMD-CDS.
 ------------------------------------------------------------------------------
 PCM non-electrostatic energy =         0.0001875755 Hartrees.
 Nuclear repulsion after PCM non-electrostatic terms =      351.9777026138 Hartrees.
 Leave Link  301 at Thu Jul 10 13:58:03 2025, MaxMem=  2684354560 cpu:               2.2 elap:               0.1
 (Enter /apps/gaussian/g16c01/g16/l302.exe)
 NPDir=0 NMtPBC=     1 NCelOv=     1 NCel=       1 NClECP=     1 NCelD=      1
         NCelK=      1 NCelE2=     1 NClLst=     1 CellRange=     0.0.
 One-electron integrals computed using PRISM.
 One-electron integral symmetry used in STVInt
 NBasis=    98 RedAO= T EigKep=  3.01D-03  NBF=    98
 NBsUse=    98 1.00D-06 EigRej= -1.00D+00 NBFU=    98
 Precomputing XC quadrature grid using
 IXCGrd= 4 IRadAn=           5 IRanWt=          -1 IRanGd=           0 AccXCQ= 0.00D+00.
 Generated NRdTot=       0 NPtTot=           0 NUsed=           0 NTot=          32
 NSgBfM=    98    98    98    98    98 MxSgAt=     6 MxSgA2=     6.
 Leave Link  302 at Thu Jul 10 13:58:04 2025, MaxMem=  2684354560 cpu:               2.6 elap:               0.2
 (Enter /apps/gaussian/g16c01/g16/l303.exe)
 DipDrv:  MaxL=1.
 Leave Link  303 at Thu Jul 10 13:58:04 2025, MaxMem=  2684354560 cpu:               1.3 elap:               0.1
 (Enter /apps/gaussian/g16c01/g16/l401.exe)
 ExpMin= 1.43D-01 ExpMax= 2.52D+04 ExpMxC= 3.78D+03 IAcc=3 IRadAn=         5 AccDes= 0.00D+00
 Harris functional with IExCor= 1009 and IRadAn=       5 diagonalized for initial guess.
 HarFok:  IExCor= 1009 AccDes= 0.00D+00 IRadAn=         5 IDoV= 1 UseB2=F ITyADJ=14
 ICtDFT=  3500011 ScaDFX=  1.000000  1.000000  1.000000  1.000000
 FoFCou: FMM=F IPFlag=           0 FMFlag=      100000 FMFlg1=           0
         NFxFlg=           0 DoJE=T BraDBF=F KetDBF=T FulRan=T
         wScrn=  0.000000 ICntrl=       500 IOpCl=  0 I1Cent=   200000004 NGrid=           0
         NMat0=    1 NMatS0=      1 NMatT0=    0 NMatD0=    1 NMtDS0=    0 NMtDT0=    0
 Petite list used in FoFCou.
 Harris En= -1195.41749384087    
 JPrj=0 DoOrth=F DoCkMO=F.
 Leave Link  401 at Thu Jul 10 13:58:04 2025, MaxMem=  2684354560 cpu:               4.2 elap:               0.2
 (Enter /apps/gaussian/g16c01/g16/l502.exe)
 Keep R1 ints in memory in canonical form, NReq=30232002.
 FoFCou: FMM=F IPFlag=           0 FMFlag=           0 FMFlg1=           0
         NFxFlg=           0 DoJE=F BraDBF=F KetDBF=F FulRan=T
         wScrn=  0.000000 ICntrl=       600 IOpCl=  0 I1Cent=           0 NGrid=           0
         NMat0=    1 NMatS0=   4851 NMatT0=    0 NMatD0=    1 NMtDS0=    0 NMtDT0=    0
 Symmetry not used in FoFCou.
 Two-electron integral symmetry not used.
 Closed shell SCF:
 Using DIIS extrapolation, IDIIS=  1040.
 NGot=  2684354560 LenX=  2672563676 LenY=  2672553631
 Requested convergence on RMS density matrix=1.00D-08 within 128 cycles.
 Requested convergence on MAX density matrix=1.00D-06.
 Requested convergence on             energy=1.00D-06.
 No special actions if energy rises.

 Cycle   1  Pass 1  IDiag  1:
 Inv3:  Mode=1 IEnd=     2776332.
 Iteration    1 A*A^-1 deviation from unit magnitude is 3.11D-15 for    953.
 Iteration    1 A*A^-1 deviation from orthogonality  is 1.24D-15 for    958    957.
 Iteration    1 A^-1*A deviation from unit magnitude is 3.11D-15 for    953.
 Iteration    1 A^-1*A deviation from orthogonality  is 1.10D-15 for    958    957.
 E= -1196.12542347903    
 DIIS: error= 2.76D-02 at cycle   1 NSaved=   1.
 NSaved= 1 IEnMin= 1 EnMin= -1196.12542347903     IErMin= 1 ErrMin= 2.76D-02
 ErrMax= 2.76D-02  0.00D+00 EMaxC= 1.00D-01 BMatC= 7.19D-02 BMatP= 7.19D-02
 IDIUse=3 WtCom= 7.24D-01 WtEn= 2.76D-01
 Coeff-Com:  0.100D+01
 Coeff-En:   0.100D+01
 Coeff:      0.100D+01
 Gap=     0.375 Goal=   None    Shift=    0.000
 GapD=    0.375 DampG=1.000 DampE=0.500 DampFc=0.5000 IDamp=-1.
 Damping current iteration by 5.00D-01
 RMSDP=3.30D-03 MaxDP=7.60D-02              OVMax= 6.67D-02

 Cycle   2  Pass 1  IDiag  1:
 E= -1196.14308500018     Delta-E=       -0.017661521148 Rises=F Damp=T
 DIIS: error= 1.12D-02 at cycle   2 NSaved=   2.
 NSaved= 2 IEnMin= 2 EnMin= -1196.14308500018     IErMin= 2 ErrMin= 1.12D-02
 ErrMax= 1.12D-02  0.00D+00 EMaxC= 1.00D-01 BMatC= 1.04D-02 BMatP= 7.19D-02
 IDIUse=3 WtCom= 8.88D-01 WtEn= 1.12D-01
 Coeff-Com: -0.352D+00 0.135D+01
 Coeff-En:   0.000D+00 0.100D+01
 Coeff:     -0.313D+00 0.131D+01
 Gap=     0.363 Goal=   None    Shift=    0.000
 RMSDP=9.56D-04 MaxDP=9.61D-03 DE=-1.77D-02 OVMax= 3.15D-02

 Cycle   3  Pass 1  IDiag  1:
 E= -1196.15851622818     Delta-E=       -0.015431228008 Rises=F Damp=F
 DIIS: error= 3.77D-03 at cycle   3 NSaved=   3.
 NSaved= 3 IEnMin= 3 EnMin= -1196.15851622818     IErMin= 3 ErrMin= 3.77D-03
 ErrMax= 3.77D-03  0.00D+00 EMaxC= 1.00D-01 BMatC= 1.66D-03 BMatP= 1.04D-02
 IDIUse=3 WtCom= 9.62D-01 WtEn= 3.77D-02
 Coeff-Com: -0.201D+00 0.459D+00 0.742D+00
 Coeff-En:   0.000D+00 0.000D+00 0.100D+01
 Coeff:     -0.194D+00 0.442D+00 0.751D+00
 Gap=     0.361 Goal=   None    Shift=    0.000
 RMSDP=3.10D-04 MaxDP=5.07D-03 DE=-1.54D-02 OVMax= 5.38D-03

 Cycle   4  Pass 1  IDiag  1:
 E= -1196.15954203277     Delta-E=       -0.001025804583 Rises=F Damp=F
 DIIS: error= 9.49D-04 at cycle   4 NSaved=   4.
 NSaved= 4 IEnMin= 4 EnMin= -1196.15954203277     IErMin= 4 ErrMin= 9.49D-04
 ErrMax= 9.49D-04  0.00D+00 EMaxC= 1.00D-01 BMatC= 8.04D-05 BMatP= 1.66D-03
 IDIUse=3 WtCom= 9.91D-01 WtEn= 9.49D-03
 Coeff-Com: -0.644D-01 0.133D+00 0.295D+00 0.636D+00
 Coeff-En:   0.000D+00 0.000D+00 0.000D+00 0.100D+01
 Coeff:     -0.638D-01 0.132D+00 0.292D+00 0.640D+00
 Gap=     0.359 Goal=   None    Shift=    0.000
 RMSDP=1.04D-04 MaxDP=3.01D-03 DE=-1.03D-03 OVMax= 4.05D-03

 Cycle   5  Pass 1  IDiag  1:
 E= -1196.15960941539     Delta-E=       -0.000067382618 Rises=F Damp=F
 DIIS: error= 2.57D-04 at cycle   5 NSaved=   5.
 NSaved= 5 IEnMin= 5 EnMin= -1196.15960941539     IErMin= 5 ErrMin= 2.57D-04
 ErrMax= 2.57D-04  0.00D+00 EMaxC= 1.00D-01 BMatC= 6.11D-06 BMatP= 8.04D-05
 IDIUse=3 WtCom= 9.97D-01 WtEn= 2.57D-03
 Coeff-Com: -0.658D-02 0.955D-02 0.436D-01 0.253D+00 0.700D+00
 Coeff-En:   0.000D+00 0.000D+00 0.000D+00 0.000D+00 0.100D+01
 Coeff:     -0.656D-02 0.953D-02 0.435D-01 0.252D+00 0.701D+00
 Gap=     0.359 Goal=   None    Shift=    0.000
 RMSDP=2.61D-05 MaxDP=6.48D-04 DE=-6.74D-05 OVMax= 8.08D-04

 Cycle   6  Pass 1  IDiag  1:
 E= -1196.15961489770     Delta-E=       -0.000005482313 Rises=F Damp=F
 DIIS: error= 3.51D-05 at cycle   6 NSaved=   6.
 NSaved= 6 IEnMin= 6 EnMin= -1196.15961489770     IErMin= 6 ErrMin= 3.51D-05
 ErrMax= 3.51D-05  0.00D+00 EMaxC= 1.00D-01 BMatC= 2.35D-07 BMatP= 6.11D-06
 IDIUse=1 WtCom= 1.00D+00 WtEn= 0.00D+00
 Coeff-Com:  0.415D-02-0.934D-02-0.154D-01 0.215D-01 0.147D+00 0.852D+00
 Coeff:      0.415D-02-0.934D-02-0.154D-01 0.215D-01 0.147D+00 0.852D+00
 Gap=     0.359 Goal=   None    Shift=    0.000
 RMSDP=8.76D-06 MaxDP=1.83D-04 DE=-5.48D-06 OVMax= 2.99D-04

 Cycle   7  Pass 1  IDiag  1:
 E= -1196.15961511398     Delta-E=       -0.000000216280 Rises=F Damp=F
 DIIS: error= 2.53D-05 at cycle   7 NSaved=   7.
 NSaved= 7 IEnMin= 7 EnMin= -1196.15961511398     IErMin= 7 ErrMin= 2.53D-05
 ErrMax= 2.53D-05  0.00D+00 EMaxC= 1.00D-01 BMatC= 8.36D-08 BMatP= 2.35D-07
 IDIUse=1 WtCom= 1.00D+00 WtEn= 0.00D+00
 Coeff-Com:  0.210D-02-0.435D-02-0.940D-02-0.859D-02-0.435D-02 0.418D+00
 Coeff-Com:  0.607D+00
 Coeff:      0.210D-02-0.435D-02-0.940D-02-0.859D-02-0.435D-02 0.418D+00
 Coeff:      0.607D+00
 Gap=     0.359 Goal=   None    Shift=    0.000
 RMSDP=3.29D-06 MaxDP=7.46D-05 DE=-2.16D-07 OVMax= 1.02D-04

 Cycle   8  Pass 1  IDiag  1:
 E= -1196.15961518960     Delta-E=       -0.000000075624 Rises=F Damp=F
 DIIS: error= 5.04D-06 at cycle   8 NSaved=   8.
 NSaved= 8 IEnMin= 8 EnMin= -1196.15961518960     IErMin= 8 ErrMin= 5.04D-06
 ErrMax= 5.04D-06  0.00D+00 EMaxC= 1.00D-01 BMatC= 3.47D-09 BMatP= 8.36D-08
 IDIUse=1 WtCom= 1.00D+00 WtEn= 0.00D+00
 Coeff-Com:  0.355D-03-0.690D-03-0.210D-02-0.567D-02-0.208D-01 0.616D-01
 Coeff-Com:  0.197D+00 0.770D+00
 Coeff:      0.355D-03-0.690D-03-0.210D-02-0.567D-02-0.208D-01 0.616D-01
 Coeff:      0.197D+00 0.770D+00
 Gap=     0.359 Goal=   None    Shift=    0.000
 RMSDP=9.88D-07 MaxDP=1.27D-05 DE=-7.56D-08 OVMax= 1.81D-05

 Cycle   9  Pass 1  IDiag  1:
 E= -1196.15961519353     Delta-E=       -0.000000003925 Rises=F Damp=F
 DIIS: error= 1.09D-06 at cycle   9 NSaved=   9.
 NSaved= 9 IEnMin= 9 EnMin= -1196.15961519353     IErMin= 9 ErrMin= 1.09D-06
 ErrMax= 1.09D-06  0.00D+00 EMaxC= 1.00D-01 BMatC= 1.20D-10 BMatP= 3.47D-09
 IDIUse=1 WtCom= 1.00D+00 WtEn= 0.00D+00
 Coeff-Com: -0.122D-03 0.261D-03 0.551D-03 0.578D-03-0.283D-03-0.173D-01
 Coeff-Com: -0.506D-01 0.128D-01 0.105D+01
 Coeff:     -0.122D-03 0.261D-03 0.551D-03 0.578D-03-0.283D-03-0.173D-01
 Coeff:     -0.506D-01 0.128D-01 0.105D+01
 Gap=     0.359 Goal=   None    Shift=    0.000
 RMSDP=2.03D-07 MaxDP=2.99D-06 DE=-3.92D-09 OVMax= 4.55D-06

 Cycle  10  Pass 1  IDiag  1:
 E= -1196.15961519369     Delta-E=       -0.000000000159 Rises=F Damp=F
 DIIS: error= 1.11D-07 at cycle  10 NSaved=  10.
 NSaved=10 IEnMin=10 EnMin= -1196.15961519369     IErMin=10 ErrMin= 1.11D-07
 ErrMax= 1.11D-07  0.00D+00 EMaxC= 1.00D-01 BMatC= 2.18D-12 BMatP= 1.20D-10
 IDIUse=1 WtCom= 1.00D+00 WtEn= 0.00D+00
 Coeff-Com: -0.827D-05 0.148D-04 0.624D-04 0.212D-03 0.444D-03-0.123D-02
 Coeff-Com: -0.811D-02-0.213D-01 0.233D-01 0.101D+01
 Coeff:     -0.827D-05 0.148D-04 0.624D-04 0.212D-03 0.444D-03-0.123D-02
 Coeff:     -0.811D-02-0.213D-01 0.233D-01 0.101D+01
 Gap=     0.359 Goal=   None    Shift=    0.000
 RMSDP=3.36D-08 MaxDP=7.56D-07 DE=-1.59D-10 OVMax= 6.73D-07

 Cycle  11  Pass 1  IDiag  1:
 E= -1196.15961519369     Delta-E=       -0.000000000008 Rises=F Damp=F
 DIIS: error= 2.46D-08 at cycle  11 NSaved=  11.
 NSaved=11 IEnMin=11 EnMin= -1196.15961519369     IErMin=11 ErrMin= 2.46D-08
 ErrMax= 2.46D-08  0.00D+00 EMaxC= 1.00D-01 BMatC= 1.05D-13 BMatP= 2.18D-12
 IDIUse=1 WtCom= 1.00D+00 WtEn= 0.00D+00
 Coeff-Com:  0.370D-05-0.781D-05-0.128D-04 0.145D-05-0.107D-04 0.579D-03
 Coeff-Com:  0.650D-03-0.260D-02-0.325D-01 0.897D-01 0.944D+00
 Coeff:      0.370D-05-0.781D-05-0.128D-04 0.145D-05-0.107D-04 0.579D-03
 Coeff:      0.650D-03-0.260D-02-0.325D-01 0.897D-01 0.944D+00
 Gap=     0.359 Goal=   None    Shift=    0.000
 RMSDP=6.72D-09 MaxDP=1.56D-07 DE=-8.41D-12 OVMax= 1.08D-07

 Error on total polarization charges =  0.00383
 SCF Done:  E(RM052X) =  -1196.15961519     A.U. after   11 cycles
            NFock= 11  Conv=0.67D-08     -V/T= 2.0041
 KE= 1.191308542642D+03 PE=-3.542498371044D+03 EE= 8.030525105945D+02
 SMD-CDS (non-electrostatic) energy       (kcal/mol) =       0.12
 (included in total energy above)
 Leave Link  502 at Thu Jul 10 13:58:08 2025, MaxMem=  2684354560 cpu:              65.3 elap:               3.5
 (Enter /apps/gaussian/g16c01/g16/l601.exe)
 Copying SCF densities to generalized density rwf, IOpCl= 0 IROHF=0.

 **********************************************************************

            Population analysis using the SCF Density.

 **********************************************************************

 Orbital symmetries:
       Occupied  (A) (A) (A) (A) (A) (A) (A) (A) (A) (A) (A) (A)
                 (A) (A) (A) (A) (A) (A) (A) (A) (A) (A) (A) (A)
                 (A) (A) (A) (A) (A) (A) (A) (A)
       Virtual   (A) (A) (A) (A) (A) (A) (A) (A) (A) (A) (A) (A)
                 (A) (A) (A) (A) (A) (A) (A) (A) (A) (A) (A) (A)
                 (A) (A) (A) (A) (A) (A) (A) (A) (A) (A) (A) (A)
                 (A) (A) (A) (A) (A) (A) (A) (A) (A) (A) (A) (A)
                 (A) (A) (A) (A) (A) (A) (A) (A) (A) (A) (A) (A)
                 (A) (A) (A) (A) (A) (A)
 The electronic state is 1-A.
 Alpha  occ. eigenvalues -- -102.80289-102.80289 -25.36988 -25.36987 -10.78700
 Alpha  occ. eigenvalues --  -10.71006  -9.84756  -9.84754  -7.57410  -7.57408
 Alpha  occ. eigenvalues --   -7.56717  -7.56717  -7.56700  -7.56699  -1.45322
 Alpha  occ. eigenvalues --   -1.38907  -1.04659  -0.95584  -0.87718  -0.74664
 Alpha  occ. eigenvalues --   -0.69611  -0.65071  -0.62943  -0.56672  -0.55686
 Alpha  occ. eigenvalues --   -0.55316  -0.52731  -0.48662  -0.42580  -0.41156
 Alpha  occ. eigenvalues --   -0.39588  -0.31563
 Alpha virt. eigenvalues --    0.04376   0.04692   0.06242   0.20087   0.27518
 Alpha virt. eigenvalues --    0.32966   0.36410   0.41585   0.45163   0.45516
 Alpha virt. eigenvalues --    0.46388   0.51226   0.51562   0.54638   0.55003
 Alpha virt. eigenvalues --    0.57643   0.63783   0.65448   0.67407   0.83281
 Alpha virt. eigenvalues --    0.84854   0.85227   0.87675   0.91572   0.91655
 Alpha virt. eigenvalues --    0.92702   1.02500   1.07360   1.07500   1.10605
 Alpha virt. eigenvalues --    1.14180   1.17976   1.23104   1.26784   1.34225
 Alpha virt. eigenvalues --    1.36636   1.41487   1.45017   1.45383   1.48471
 Alpha virt. eigenvalues --    1.71614   1.79590   1.80686   1.83729   1.85011
 Alpha virt. eigenvalues --    1.88719   2.00569   2.00724   2.04129   2.06754
 Alpha virt. eigenvalues --    2.09409   2.17421   2.21940   2.49655   2.59439
 Alpha virt. eigenvalues --    2.60515   2.78157   3.03972   3.13809   3.14352
 Alpha virt. eigenvalues --    4.02240   4.15489   4.33298   4.42116   4.72992
 Alpha virt. eigenvalues --    5.18770
          Condensed to atoms (all electrons):
               1          2          3          4          5          6
     1  C    5.666702   0.428903   0.219449   0.219449  -0.071319  -0.071319
     2  C    0.428903   4.338479  -0.069552  -0.069552   0.346714   0.346714
     3  Cl   0.219449  -0.069552  16.818240  -0.057047   0.001300   0.004949
     4  Cl   0.219449  -0.069552  -0.057047  16.818239   0.004949   0.001300
     5  F   -0.071319   0.346714   0.001300   0.004949   8.984641  -0.040409
     6  F   -0.071319   0.346714   0.004949   0.001300  -0.040409   8.984641
 Mulliken charges:
               1
     1  C   -0.391865
     2  C    0.678295
     3  Cl   0.082660
     4  Cl   0.082662
     5  F   -0.225876
     6  F   -0.225876
 Sum of Mulliken charges =  -0.00000
 Mulliken charges with hydrogens summed into heavy atoms:
               1
     1  C   -0.391865
     2  C    0.678295
     3  Cl   0.082660
     4  Cl   0.082662
     5  F   -0.225876
     6  F   -0.225876
 Electronic spatial extent (au):  <R**2>=            840.9337
 Charge=             -0.0000 electrons
 Dipole moment (field-independent basis, Debye):
    X=             -0.4442    Y=             -0.0000    Z=              0.0001  Tot=              0.4442
 Quadrupole moment (field-independent basis, Debye-Ang):
   XX=            -45.7839   YY=            -45.5429   ZZ=            -45.1832
   XY=             -0.0000   XZ=             -0.0002   YZ=              0.0000
 Traceless Quadrupole moment (field-independent basis, Debye-Ang):
   XX=             -0.2805   YY=             -0.0396   ZZ=              0.3201
   XY=             -0.0000   XZ=             -0.0002   YZ=              0.0000
 Octapole moment (field-independent basis, Debye-Ang**2):
  XXX=            -17.1628  YYY=             -0.0000  ZZZ=             -0.0005  XYY=             -0.8314
  XXY=             -0.0001  XXZ=             -0.0001  XZZ=             -8.2628  YZZ=             -0.0000
  YYZ=             -0.0003  XYZ=             -0.0001
 Hexadecapole moment (field-independent basis, Debye-Ang**3):
 XXXX=           -460.0995 YYYY=           -413.8131 ZZZZ=            -43.4525 XXXY=             -0.0001
 XXXZ=             -0.0010 YYYX=              0.0001 YYYZ=              0.0027 ZZZX=             -0.0006
 ZZZY=              0.0032 XXYY=           -140.3943 XXZZ=            -83.1866 YYZZ=            -81.5724
 XXYZ=              0.0010 YYXZ=             -0.0005 ZZXY=              0.0000
 N-N= 3.519777026138D+02 E-N=-3.542498367971D+03  KE= 1.191308542642D+03
 No NMR shielding tensors so no spin-rotation constants.
 Leave Link  601 at Thu Jul 10 13:58:08 2025, MaxMem=  2684354560 cpu:               3.8 elap:               0.2
 (Enter /apps/gaussian/g16c01/g16/l9999.exe)
 Unable to Open any file for archive entry.
 1\1\GINC-GADI-CPU-CLX-1004\SP\RM052X\6-31G(d)\C2Cl2F2\YR9300\10-Jul-20
 25\0\\#P M052X/6-31G* scrf(SMD,solvent=n-octanol)\\Cl2F2_iso2_oct_M05-
 2x\\0,1\C,0,0.228967,0.000001,-0.000029\C,0,-1.098866,0.000002,-0.0000
 34\Cl,0,1.124767,-1.480809,0.00002\Cl,0,1.124775,1.480805,-0.00002\F,0
 ,-1.8346,1.089165,-0.000009\F,0,-1.834602,-1.08916,0.000049\\Version=E
 S64L-G16RevC.01\State=1-A\HF=-1196.1596152\RMSD=6.719e-09\Dipole=-0.17
 47665,0.0000037,-0.0000225\Quadrupole=-0.2085685,-0.0294431,0.2380116,
 0.0000069,0.0001124,0.0000205\PG=C01 [X(C2Cl2F2)]\\@
 The archive entry for this job was punched.


 POCKETA-POCKETA
 BARON VON RICHTOFEN
 SLAUGHTERED THE ALLIES WITH
 HARDLY A CARE.
 KILLED EIGHTY-ONE WITH HIS
 BLOOD-COLORED TRIPLANE, THEN
 UN-AEROBATICALLY
 PLUNGED FROM THE AIR.
   -- TONY HOFFMAN
 Job cpu time:       0 days  0 hours  1 minutes 29.9 seconds.
 Elapsed time:       0 days  0 hours  0 minutes  5.0 seconds.
 File lengths (MBytes):  RWF=     22 Int=      0 D2E=      0 Chk=      2 Scr=      1
 Normal termination of Gaussian 16 at Thu Jul 10 13:58:08 2025.
