 Entering Gaussian System, Link 0=g16
 Initial command:
 /apps/gaussian/g16c01/g16/l1.exe "/jobfs/145005429.gadi-pbs/Gau-3744849.inp" -scrdir="/jobfs/145005429.gadi-pbs/"
 Entering Link 1 = /apps/gaussian/g16c01/g16/l1.exe PID=   3744850.
  
 Copyright (c) 1988-2019, Gaussian, Inc.  All Rights Reserved.
  
 This is part of the Gaussian(R) 16 program.  It is based on
 the Gaussian(R) 09 system (copyright 2009, Gaussian, Inc.),
 the Gaussian(R) 03 system (copyright 2003, Gaussian, Inc.),
 the Gaussian(R) 98 system (copyright 1998, Gaussian, Inc.),
 the Gaussian(R) 94 system (copyright 1995, Gaussian, Inc.),
 the Gaussian 92(TM) system (copyright 1992, Gaussian, Inc.),
 the Gaussian 90(TM) system (copyright 1990, Gaussian, Inc.),
 the Gaussian 88(TM) system (copyright 1988, Gaussian, Inc.),
 the Gaussian 86(TM) system (copyright 1986, Carnegie Mellon
 University), and the Gaussian 82(TM) system (copyright 1983,
 Carnegie Mellon University). Gaussian is a federally registered
 trademark of Gaussian, Inc.
  
 This software contains proprietary and confidential information,
 including trade secrets, belonging to Gaussian, Inc.
  
 This software is provided under written license and may be
 used, copied, transmitted, or stored only in accord with that
 written license.
  
 The following legend is applicable only to US Government
 contracts under FAR:
  
                    RESTRICTED RIGHTS LEGEND
  
 Use, reproduction and disclosure by the US Government is
 subject to restrictions as set forth in subparagraphs (a)
 and (c) of the Commercial Computer Software - Restricted
 Rights clause in FAR 52.227-19.
  
 Gaussian, Inc.
 340 Quinnipiac St., Bldg. 40, Wallingford CT 06492
  
  
 ---------------------------------------------------------------
 Warning -- This program may not be used in any manner that
 competes with the business of Gaussian, Inc. or will provide
 assistance to any competitor of Gaussian, Inc.  The licensee
 of this program is prohibited from giving any competitor of
 Gaussian, Inc. access to this program.  By using this program,
 the user acknowledges that Gaussian, Inc. is engaged in the
 business of creating and licensing software in the field of
 computational chemistry and represents and warrants to the
 licensee that it is not a competitor of Gaussian, Inc. and that
 it will not use this program in any manner prohibited above.
 ---------------------------------------------------------------
  

 Cite this work as:
 Gaussian 16, Revision C.01,
 M. J. Frisch, G. W. Trucks, H. B. Schlegel, G. E. Scuseria, 
 M. A. Robb, J. R. Cheeseman, G. Scalmani, V. Barone, 
 G. A. Petersson, H. Nakatsuji, X. Li, M. Caricato, A. V. Marenich, 
 J. Bloino, B. G. Janesko, R. Gomperts, B. Mennucci, H. P. Hratchian, 
 J. V. Ortiz, A. F. Izmaylov, J. L. Sonnenberg, D. Williams-Young, 
 F. Ding, F. Lipparini, F. Egidi, J. Goings, B. Peng, A. Petrone, 
 T. Henderson, D. Ranasinghe, V. G. Zakrzewski, J. Gao, N. Rega, 
 G. Zheng, W. Liang, M. Hada, M. Ehara, K. Toyota, R. Fukuda, 
 J. Hasegawa, M. Ishida, T. Nakajima, Y. Honda, O. Kitao, H. Nakai, 
 T. Vreven, K. Throssell, J. A. Montgomery, Jr., J. E. Peralta, 
 F. Ogliaro, M. J. Bearpark, J. J. Heyd, E. N. Brothers, K. N. Kudin, 
 V. N. Staroverov, T. A. Keith, R. Kobayashi, J. Normand, 
 K. Raghavachari, A. P. Rendell, J. C. Burant, S. S. Iyengar, 
 J. Tomasi, M. Cossi, J. M. Millam, M. Klene, C. Adamo, R. Cammi, 
 J. W. Ochterski, R. L. Martin, K. Morokuma, O. Farkas, 
 J. B. Foresman, and D. J. Fox, Gaussian, Inc., Wallingford CT, 2019.
 
 ******************************************
 Gaussian 16:  ES64L-G16RevC.01  3-Jul-2019
                10-Jul-2025 
 ******************************************
 %chk=Cl2F2_iso2_oct_vaccum_M05-2x.chk
 %mem=20GB
 %nprocshared=20
 Will use up to   20 processors via shared memory.
 ---------------
 #P M052X/6-31G*
 ---------------
 1/38=1,172=1/1;
 2/12=2,17=6,18=5,40=1/2;
 3/5=1,6=6,7=1,11=2,25=1,30=1,74=-38/1,2,3;
 4//1;
 5/5=2,38=5/2;
 6/7=2,8=2,9=2,10=2,28=1/1;
 99/5=1,9=1/99;
 Leave Link    1 at Thu Jul 10 13:58:04 2025, MaxMem=  2684354560 cpu:               1.1 elap:               0.1
 (Enter /apps/gaussian/g16c01/g16/l101.exe)
 ----------------------------
 Cl2F2_iso2_oct_vaccum_M05-2x
 ----------------------------
 Symbolic Z-matrix:
 Charge =  0 Multiplicity = 1
 C                     0.22897   0.       -0.00003 
 C                    -1.09887   0.       -0.00003 
 Cl                    1.12477  -1.48081   0.00002 
 Cl                    1.12478   1.48081  -0.00002 
 F                    -1.8346    1.08916  -0.00001 
 F                    -1.8346   -1.08916   0.00005 
 
 ITRead=  0  0  0  0  0  0
 MicOpt= -1 -1 -1 -1 -1 -1
 NAtoms=      6 NQM=        6 NQMF=       0 NMMI=      0 NMMIF=      0
                NMic=       0 NMicF=      0.
                    Isotopes and Nuclear Properties:
 (Nuclear quadrupole moments (NQMom) in fm**2, nuclear magnetic moments (NMagM)
  in nuclear magnetons)

  Atom         1           2           3           4           5           6
 IAtWgt=          12          12          35          35          19          19
 AtmWgt=  12.0000000  12.0000000  34.9688527  34.9688527  18.9984033  18.9984033
 NucSpn=           0           0           3           3           1           1
 AtZEff=  -0.0000000  -0.0000000  -0.0000000  -0.0000000  -0.0000000  -0.0000000
 NQMom=    0.0000000   0.0000000  -8.1650000  -8.1650000   0.0000000   0.0000000
 NMagM=    0.0000000   0.0000000   0.8218740   0.8218740   2.6288670   2.6288670
 AtZNuc=   6.0000000   6.0000000  17.0000000  17.0000000   9.0000000   9.0000000
 Leave Link  101 at Thu Jul 10 13:58:04 2025, MaxMem=  2684354560 cpu:               6.0 elap:               0.3
 (Enter /apps/gaussian/g16c01/g16/l202.exe)
                          Input orientation:                          
 ---------------------------------------------------------------------
 Center     Atomic      Atomic             Coordinates (Angstroms)
 Number     Number       Type             X           Y           Z
 ---------------------------------------------------------------------
      1          6           0        0.228967    0.000001   -0.000029
      2          6           0       -1.098866    0.000002   -0.000034
      3         17           0        1.124767   -1.480809    0.000020
      4         17           0        1.124775    1.480805   -0.000020
      5          9           0       -1.834600    1.089165   -0.000009
      6          9           0       -1.834602   -1.089160    0.000049
 ---------------------------------------------------------------------
                    Distance matrix (angstroms):
                    1          2          3          4          5
     1  C    0.000000
     2  C    1.327833   0.000000
     3  Cl   1.730681   2.671581   0.000000
     4  Cl   1.730680   2.671583   2.961614   0.000000
     5  F    2.333364   1.314375   3.919518   2.985177   0.000000
     6  F    2.333364   1.314375   2.985172   3.919519   2.178325
                    6
     6  F    0.000000
 Stoichiometry    C2Cl2F2
 Framework group  C1[X(C2Cl2F2)]
 Deg. of freedom    12
 Full point group                 C1      NOp   1
 Largest Abelian subgroup         C1      NOp   1
 Largest concise Abelian subgroup C1      NOp   1
                         Standard orientation:                         
 ---------------------------------------------------------------------
 Center     Atomic      Atomic             Coordinates (Angstroms)
 Number     Number       Type             X           Y           Z
 ---------------------------------------------------------------------
      1          6           0        0.228967   -0.000000    0.000029
      2          6           0       -1.098866   -0.000006    0.000034
      3         17           0        1.124762    1.480813   -0.000020
      4         17           0        1.124780   -1.480801    0.000020
      5          9           0       -1.834596   -1.089171    0.000009
      6          9           0       -1.834606    1.089154   -0.000049
 ---------------------------------------------------------------------
 Rotational constants (GHZ):           2.5468455           2.1833500           1.1755656
 Leave Link  202 at Thu Jul 10 13:58:04 2025, MaxMem=  2684354560 cpu:               0.8 elap:               0.1
 (Enter /apps/gaussian/g16c01/g16/l301.exe)
 Standard basis: 6-31G(d) (6D, 7F)
 Ernie: Thresh=  0.10000D-02 Tol=  0.10000D-05 Strict=F.
 There are    98 symmetry adapted cartesian basis functions of A   symmetry.
 There are    98 symmetry adapted basis functions of A   symmetry.
    98 basis functions,   216 primitive gaussians,    98 cartesian basis functions
    32 alpha electrons       32 beta electrons
       nuclear repulsion energy       351.9775150383 Hartrees.
 IExCor= 3428 DFT=T Ex+Corr=M052X ExCW=0 ScaHFX=  0.560000
 ScaDFX=  0.440000  0.440000  1.000000  1.000000 ScalE2=  1.000000  1.000000
 IRadAn=      5 IRanWt=     -1 IRanGd=            0 ICorTp=0 IEmpDi=  4
 NAtoms=    6 NActive=    6 NUniq=    6 SFac= 1.00D+00 NAtFMM=   60 NAOKFM=F Big=F
 Integral buffers will be    131072 words long.
 Raffenetti 2 integral format.
 Two-electron integral symmetry is turned on.
 Leave Link  301 at Thu Jul 10 13:58:04 2025, MaxMem=  2684354560 cpu:               1.8 elap:               0.1
 (Enter /apps/gaussian/g16c01/g16/l302.exe)
 NPDir=0 NMtPBC=     1 NCelOv=     1 NCel=       1 NClECP=     1 NCelD=      1
         NCelK=      1 NCelE2=     1 NClLst=     1 CellRange=     0.0.
 One-electron integrals computed using PRISM.
 One-electron integral symmetry used in STVInt
 NBasis=    98 RedAO= T EigKep=  3.01D-03  NBF=    98
 NBsUse=    98 1.00D-06 EigRej= -1.00D+00 NBFU=    98
 Precomputing XC quadrature grid using
 IXCGrd= 4 IRadAn=           5 IRanWt=          -1 IRanGd=           0 AccXCQ= 0.00D+00.
 Generated NRdTot=       0 NPtTot=           0 NUsed=           0 NTot=          32
 NSgBfM=    98    98    98    98    98 MxSgAt=     6 MxSgA2=     6.
 Leave Link  302 at Thu Jul 10 13:58:04 2025, MaxMem=  2684354560 cpu:               2.1 elap:               0.1
 (Enter /apps/gaussian/g16c01/g16/l303.exe)
 DipDrv:  MaxL=1.
 Leave Link  303 at Thu Jul 10 13:58:04 2025, MaxMem=  2684354560 cpu:               0.5 elap:               0.0
 (Enter /apps/gaussian/g16c01/g16/l401.exe)
 ExpMin= 1.43D-01 ExpMax= 2.52D+04 ExpMxC= 3.78D+03 IAcc=3 IRadAn=         5 AccDes= 0.00D+00
 Harris functional with IExCor= 1009 and IRadAn=       5 diagonalized for initial guess.
 HarFok:  IExCor= 1009 AccDes= 0.00D+00 IRadAn=         5 IDoV= 1 UseB2=F ITyADJ=14
 ICtDFT=  3500011 ScaDFX=  1.000000  1.000000  1.000000  1.000000
 FoFCou: FMM=F IPFlag=           0 FMFlag=      100000 FMFlg1=           0
         NFxFlg=           0 DoJE=T BraDBF=F KetDBF=T FulRan=T
         wScrn=  0.000000 ICntrl=       500 IOpCl=  0 I1Cent=   200000004 NGrid=           0
         NMat0=    1 NMatS0=      1 NMatT0=    0 NMatD0=    1 NMtDS0=    0 NMtDT0=    0
 Petite list used in FoFCou.
 Harris En= -1195.41768141636    
 JPrj=0 DoOrth=F DoCkMO=F.
 Leave Link  401 at Thu Jul 10 13:58:05 2025, MaxMem=  2684354560 cpu:               5.2 elap:               0.4
 (Enter /apps/gaussian/g16c01/g16/l502.exe)
 Keep R1 ints in memory in canonical form, NReq=30232002.
 FoFCou: FMM=F IPFlag=           0 FMFlag=           0 FMFlg1=           0
         NFxFlg=           0 DoJE=F BraDBF=F KetDBF=F FulRan=T
         wScrn=  0.000000 ICntrl=       600 IOpCl=  0 I1Cent=           0 NGrid=           0
         NMat0=    1 NMatS0=   4851 NMatT0=    0 NMatD0=    1 NMtDS0=    0 NMtDT0=    0
 Symmetry not used in FoFCou.
 Two-electron integral symmetry not used.
 Closed shell SCF:
 Using DIIS extrapolation, IDIIS=  1040.
 NGot=  2684354560 LenX=  2672563676 LenY=  2672553631
 Requested convergence on RMS density matrix=1.00D-08 within 128 cycles.
 Requested convergence on MAX density matrix=1.00D-06.
 Requested convergence on             energy=1.00D-06.
 No special actions if energy rises.
 Integral accuracy reduced to 1.0D-05 until final iterations.

 Cycle   1  Pass 0  IDiag  1:
 E= -1196.12417832904    
 DIIS: error= 2.75D-02 at cycle   1 NSaved=   1.
 NSaved= 1 IEnMin= 1 EnMin= -1196.12417832904     IErMin= 1 ErrMin= 2.75D-02
 ErrMax= 2.75D-02  0.00D+00 EMaxC= 1.00D-01 BMatC= 7.23D-02 BMatP= 7.23D-02
 IDIUse=3 WtCom= 7.25D-01 WtEn= 2.75D-01
 Coeff-Com:  0.100D+01
 Coeff-En:   0.100D+01
 Coeff:      0.100D+01
 Gap=     0.374 Goal=   None    Shift=    0.000
 GapD=    0.374 DampG=1.000 DampE=0.500 DampFc=0.5000 IDamp=-1.
 Damping current iteration by 5.00D-01
 RMSDP=3.31D-03 MaxDP=7.59D-02              OVMax= 6.67D-02

 Cycle   2  Pass 0  IDiag  1:
 E= -1196.14173467054     Delta-E=       -0.017556341508 Rises=F Damp=T
 DIIS: error= 1.12D-02 at cycle   2 NSaved=   2.
 NSaved= 2 IEnMin= 2 EnMin= -1196.14173467054     IErMin= 2 ErrMin= 1.12D-02
 ErrMax= 1.12D-02  0.00D+00 EMaxC= 1.00D-01 BMatC= 1.04D-02 BMatP= 7.23D-02
 IDIUse=3 WtCom= 8.88D-01 WtEn= 1.12D-01
 Coeff-Com: -0.341D+00 0.134D+01
 Coeff-En:   0.000D+00 0.100D+01
 Coeff:     -0.303D+00 0.130D+01
 Gap=     0.366 Goal=   None    Shift=    0.000
 RMSDP=1.02D-03 MaxDP=1.23D-02 DE=-1.76D-02 OVMax= 3.39D-02

 Cycle   3  Pass 0  IDiag  1:
 E= -1196.15713923704     Delta-E=       -0.015404566500 Rises=F Damp=F
 DIIS: error= 3.95D-03 at cycle   3 NSaved=   3.
 NSaved= 3 IEnMin= 3 EnMin= -1196.15713923704     IErMin= 3 ErrMin= 3.95D-03
 ErrMax= 3.95D-03  0.00D+00 EMaxC= 1.00D-01 BMatC= 1.81D-03 BMatP= 1.04D-02
 IDIUse=3 WtCom= 9.61D-01 WtEn= 3.95D-02
 Coeff-Com: -0.205D+00 0.469D+00 0.736D+00
 Coeff-En:   0.000D+00 0.000D+00 0.100D+01
 Coeff:     -0.197D+00 0.450D+00 0.747D+00
 Gap=     0.360 Goal=   None    Shift=    0.000
 RMSDP=3.37D-04 MaxDP=5.41D-03 DE=-1.54D-02 OVMax= 5.61D-03

 Cycle   4  Pass 0  IDiag  1:
 E= -1196.15829061532     Delta-E=       -0.001151378273 Rises=F Damp=F
 DIIS: error= 7.39D-04 at cycle   4 NSaved=   4.
 NSaved= 4 IEnMin= 4 EnMin= -1196.15829061532     IErMin= 4 ErrMin= 7.39D-04
 ErrMax= 7.39D-04  0.00D+00 EMaxC= 1.00D-01 BMatC= 6.24D-05 BMatP= 1.81D-03
 IDIUse=3 WtCom= 9.93D-01 WtEn= 7.39D-03
 Coeff-Com: -0.593D-01 0.121D+00 0.268D+00 0.670D+00
 Coeff-En:   0.000D+00 0.000D+00 0.000D+00 0.100D+01
 Coeff:     -0.588D-01 0.121D+00 0.266D+00 0.673D+00
 Gap=     0.361 Goal=   None    Shift=    0.000
 RMSDP=9.53D-05 MaxDP=2.38D-03 DE=-1.15D-03 OVMax= 3.17D-03

 Cycle   5  Pass 0  IDiag  1:
 E= -1196.15833861311     Delta-E=       -0.000047997791 Rises=F Damp=F
 DIIS: error= 2.69D-04 at cycle   5 NSaved=   5.
 NSaved= 5 IEnMin= 5 EnMin= -1196.15833861311     IErMin= 5 ErrMin= 2.69D-04
 ErrMax= 2.69D-04  0.00D+00 EMaxC= 1.00D-01 BMatC= 6.62D-06 BMatP= 6.24D-05
 IDIUse=3 WtCom= 9.97D-01 WtEn= 2.69D-03
 Coeff-Com: -0.850D-02 0.135D-01 0.513D-01 0.293D+00 0.651D+00
 Coeff-En:   0.000D+00 0.000D+00 0.000D+00 0.000D+00 0.100D+01
 Coeff:     -0.848D-02 0.135D-01 0.511D-01 0.292D+00 0.652D+00
 Gap=     0.361 Goal=   None    Shift=    0.000
 RMSDP=3.00D-05 MaxDP=7.20D-04 DE=-4.80D-05 OVMax= 1.01D-03

 Cycle   6  Pass 0  IDiag  1:
 E= -1196.15834464741     Delta-E=       -0.000006034299 Rises=F Damp=F
 DIIS: error= 4.04D-05 at cycle   6 NSaved=   6.
 NSaved= 6 IEnMin= 6 EnMin= -1196.15834464741     IErMin= 6 ErrMin= 4.04D-05
 ErrMax= 4.04D-05  0.00D+00 EMaxC= 1.00D-01 BMatC= 2.15D-07 BMatP= 6.62D-06
 IDIUse=1 WtCom= 1.00D+00 WtEn= 0.00D+00
 Coeff-Com:  0.432D-02-0.955D-02-0.159D-01 0.141D-01 0.133D+00 0.874D+00
 Coeff:      0.432D-02-0.955D-02-0.159D-01 0.141D-01 0.133D+00 0.874D+00
 Gap=     0.361 Goal=   None    Shift=    0.000
 RMSDP=8.09D-06 MaxDP=2.02D-04 DE=-6.03D-06 OVMax= 2.97D-04

 Initial convergence to 1.0D-05 achieved.  Increase integral accuracy.
 Cycle   7  Pass 1  IDiag  1:
 E= -1196.15837555167     Delta-E=       -0.000030904261 Rises=F Damp=F
 DIIS: error= 6.59D-05 at cycle   1 NSaved=   1.
 NSaved= 1 IEnMin= 1 EnMin= -1196.15837555167     IErMin= 1 ErrMin= 6.59D-05
 ErrMax= 6.59D-05  0.00D+00 EMaxC= 1.00D-01 BMatC= 4.27D-07 BMatP= 4.27D-07
 IDIUse=1 WtCom= 1.00D+00 WtEn= 0.00D+00
 Coeff-Com:  0.100D+01
 Coeff:      0.100D+01
 Gap=     0.361 Goal=   None    Shift=    0.000
 RMSDP=8.09D-06 MaxDP=2.02D-04 DE=-3.09D-05 OVMax= 2.07D-04

 Cycle   8  Pass 1  IDiag  1:
 E= -1196.15837593580     Delta-E=       -0.000000384133 Rises=F Damp=F
 DIIS: error= 1.80D-05 at cycle   2 NSaved=   2.
 NSaved= 2 IEnMin= 2 EnMin= -1196.15837593580     IErMin= 2 ErrMin= 1.80D-05
 ErrMax= 1.80D-05  0.00D+00 EMaxC= 1.00D-01 BMatC= 6.47D-08 BMatP= 4.27D-07
 IDIUse=1 WtCom= 1.00D+00 WtEn= 0.00D+00
 Coeff-Com:  0.187D+00 0.813D+00
 Coeff:      0.187D+00 0.813D+00
 Gap=     0.361 Goal=   None    Shift=    0.000
 RMSDP=4.94D-06 MaxDP=9.46D-05 DE=-3.84D-07 OVMax= 1.03D-04

 Cycle   9  Pass 1  IDiag  1:
 E= -1196.15837596754     Delta-E=       -0.000000031743 Rises=F Damp=F
 DIIS: error= 1.75D-05 at cycle   3 NSaved=   3.
 NSaved= 3 IEnMin= 3 EnMin= -1196.15837596754     IErMin= 3 ErrMin= 1.75D-05
 ErrMax= 1.75D-05  0.00D+00 EMaxC= 1.00D-01 BMatC= 3.81D-08 BMatP= 6.47D-08
 IDIUse=1 WtCom= 1.00D+00 WtEn= 0.00D+00
 Coeff-Com: -0.172D-01 0.428D+00 0.590D+00
 Coeff:     -0.172D-01 0.428D+00 0.590D+00
 Gap=     0.361 Goal=   None    Shift=    0.000
 RMSDP=2.36D-06 MaxDP=5.98D-05 DE=-3.17D-08 OVMax= 5.81D-05

 Cycle  10  Pass 1  IDiag  1:
 E= -1196.15837600213     Delta-E=       -0.000000034584 Rises=F Damp=F
 DIIS: error= 2.65D-06 at cycle   4 NSaved=   4.
 NSaved= 4 IEnMin= 4 EnMin= -1196.15837600213     IErMin= 4 ErrMin= 2.65D-06
 ErrMax= 2.65D-06  0.00D+00 EMaxC= 1.00D-01 BMatC= 1.28D-09 BMatP= 3.81D-08
 IDIUse=1 WtCom= 1.00D+00 WtEn= 0.00D+00
 Coeff-Com: -0.207D-01 0.954D-01 0.213D+00 0.713D+00
 Coeff:     -0.207D-01 0.954D-01 0.213D+00 0.713D+00
 Gap=     0.361 Goal=   None    Shift=    0.000
 RMSDP=5.75D-07 MaxDP=1.37D-05 DE=-3.46D-08 OVMax= 2.20D-05

 Cycle  11  Pass 1  IDiag  1:
 E= -1196.15837600350     Delta-E=       -0.000000001373 Rises=F Damp=F
 DIIS: error= 1.08D-06 at cycle   5 NSaved=   5.
 NSaved= 5 IEnMin= 5 EnMin= -1196.15837600350     IErMin= 5 ErrMin= 1.08D-06
 ErrMax= 1.08D-06  0.00D+00 EMaxC= 1.00D-01 BMatC= 1.39D-10 BMatP= 1.28D-09
 IDIUse=1 WtCom= 1.00D+00 WtEn= 0.00D+00
 Coeff-Com: -0.478D-02 0.376D-02 0.252D-01 0.271D+00 0.705D+00
 Coeff:     -0.478D-02 0.376D-02 0.252D-01 0.271D+00 0.705D+00
 Gap=     0.361 Goal=   None    Shift=    0.000
 RMSDP=1.49D-07 MaxDP=2.56D-06 DE=-1.37D-09 OVMax= 2.82D-06

 Cycle  12  Pass 1  IDiag  1:
 E= -1196.15837600362     Delta-E=       -0.000000000118 Rises=F Damp=F
 DIIS: error= 2.65D-07 at cycle   6 NSaved=   6.
 NSaved= 6 IEnMin= 6 EnMin= -1196.15837600362     IErMin= 6 ErrMin= 2.65D-07
 ErrMax= 2.65D-07  0.00D+00 EMaxC= 1.00D-01 BMatC= 9.26D-12 BMatP= 1.39D-10
 IDIUse=1 WtCom= 1.00D+00 WtEn= 0.00D+00
 Coeff-Com:  0.148D-02-0.139D-01-0.286D-01-0.647D-02 0.168D+00 0.880D+00
 Coeff:      0.148D-02-0.139D-01-0.286D-01-0.647D-02 0.168D+00 0.880D+00
 Gap=     0.361 Goal=   None    Shift=    0.000
 RMSDP=5.79D-08 MaxDP=8.81D-07 DE=-1.18D-10 OVMax= 1.37D-06

 Cycle  13  Pass 1  IDiag  1:
 E= -1196.15837600363     Delta-E=       -0.000000000009 Rises=F Damp=F
 DIIS: error= 4.56D-08 at cycle   7 NSaved=   7.
 NSaved= 7 IEnMin= 7 EnMin= -1196.15837600363     IErMin= 7 ErrMin= 4.56D-08
 ErrMax= 4.56D-08  0.00D+00 EMaxC= 1.00D-01 BMatC= 3.30D-13 BMatP= 9.26D-12
 IDIUse=1 WtCom= 1.00D+00 WtEn= 0.00D+00
 Coeff-Com:  0.480D-03-0.339D-02-0.828D-02-0.818D-02 0.177D-01 0.215D+00
 Coeff-Com:  0.787D+00
 Coeff:      0.480D-03-0.339D-02-0.828D-02-0.818D-02 0.177D-01 0.215D+00
 Coeff:      0.787D+00
 Gap=     0.361 Goal=   None    Shift=    0.000
 RMSDP=9.83D-09 MaxDP=1.81D-07 DE=-8.87D-12 OVMax= 3.11D-07

 SCF Done:  E(RM052X) =  -1196.15837600     A.U. after   13 cycles
            NFock= 13  Conv=0.98D-08     -V/T= 2.0041
 KE= 1.191319668801D+03 PE=-3.542558051795D+03 EE= 8.031024919523D+02
 Leave Link  502 at Thu Jul 10 13:58:07 2025, MaxMem=  2684354560 cpu:              36.7 elap:               2.0
 (Enter /apps/gaussian/g16c01/g16/l601.exe)
 Copying SCF densities to generalized density rwf, IOpCl= 0 IROHF=0.

 **********************************************************************

            Population analysis using the SCF Density.

 **********************************************************************

 Orbital symmetries:
       Occupied  (A) (A) (A) (A) (A) (A) (A) (A) (A) (A) (A) (A)
                 (A) (A) (A) (A) (A) (A) (A) (A) (A) (A) (A) (A)
                 (A) (A) (A) (A) (A) (A) (A) (A)
       Virtual   (A) (A) (A) (A) (A) (A) (A) (A) (A) (A) (A) (A)
                 (A) (A) (A) (A) (A) (A) (A) (A) (A) (A) (A) (A)
                 (A) (A) (A) (A) (A) (A) (A) (A) (A) (A) (A) (A)
                 (A) (A) (A) (A) (A) (A) (A) (A) (A) (A) (A) (A)
                 (A) (A) (A) (A) (A) (A) (A) (A) (A) (A) (A) (A)
                 (A) (A) (A) (A) (A) (A)
 The electronic state is 1-A.
 Alpha  occ. eigenvalues -- -102.80441-102.80441 -25.37408 -25.37407 -10.79034
 Alpha  occ. eigenvalues --  -10.71451  -9.84911  -9.84909  -7.57567  -7.57565
 Alpha  occ. eigenvalues --   -7.56867  -7.56867  -7.56853  -7.56852  -1.45776
 Alpha  occ. eigenvalues --   -1.39340  -1.04925  -0.95758  -0.88085  -0.75044
 Alpha  occ. eigenvalues --   -0.69989  -0.65600  -0.63226  -0.57132  -0.56031
 Alpha  occ. eigenvalues --   -0.55675  -0.53008  -0.48925  -0.42700  -0.41269
 Alpha  occ. eigenvalues --   -0.39699  -0.31944
 Alpha virt. eigenvalues --    0.04140   0.04161   0.05922   0.19456   0.27156
 Alpha virt. eigenvalues --    0.32864   0.36120   0.41460   0.45022   0.45328
 Alpha virt. eigenvalues --    0.46271   0.51181   0.51344   0.54373   0.54512
 Alpha virt. eigenvalues --    0.56902   0.63286   0.64924   0.67053   0.83098
 Alpha virt. eigenvalues --    0.84590   0.84777   0.87484   0.91450   0.91515
 Alpha virt. eigenvalues --    0.92547   1.02194   1.07129   1.07251   1.10209
 Alpha virt. eigenvalues --    1.13956   1.17703   1.22587   1.26549   1.33899
 Alpha virt. eigenvalues --    1.36169   1.41152   1.44572   1.44944   1.48131
 Alpha virt. eigenvalues --    1.71196   1.79103   1.80308   1.83289   1.84593
 Alpha virt. eigenvalues --    1.88270   1.99924   2.00350   2.03708   2.06302
 Alpha virt. eigenvalues --    2.08928   2.16916   2.21538   2.49218   2.58967
 Alpha virt. eigenvalues --    2.60016   2.77743   3.03512   3.13407   3.13989
 Alpha virt. eigenvalues --    4.01868   4.15084   4.33135   4.41850   4.72480
 Alpha virt. eigenvalues --    5.18283
          Condensed to atoms (all electrons):
               1          2          3          4          5          6
     1  C    5.662734   0.423166   0.224489   0.224489  -0.072049  -0.072049
     2  C    0.423166   4.375120  -0.071422  -0.071422   0.345254   0.345254
     3  Cl   0.224489  -0.071422  16.806782  -0.057239   0.001307   0.004922
     4  Cl   0.224489  -0.071422  -0.057239  16.806781   0.004922   0.001307
     5  F   -0.072049   0.345254   0.001307   0.004922   8.984138  -0.040772
     6  F   -0.072049   0.345254   0.004922   0.001307  -0.040772   8.984138
 Mulliken charges:
               1
     1  C   -0.390779
     2  C    0.654051
     3  Cl   0.091162
     4  Cl   0.091163
     5  F   -0.222798
     6  F   -0.222798
 Sum of Mulliken charges =  -0.00000
 Mulliken charges with hydrogens summed into heavy atoms:
               1
     1  C   -0.390779
     2  C    0.654051
     3  Cl   0.091162
     4  Cl   0.091163
     5  F   -0.222798
     6  F   -0.222798
 Electronic spatial extent (au):  <R**2>=            840.7043
 Charge=             -0.0000 electrons
 Dipole moment (field-independent basis, Debye):
    X=             -0.2903    Y=             -0.0000    Z=              0.0000  Tot=              0.2903
 Quadrupole moment (field-independent basis, Debye-Ang):
   XX=            -45.6805   YY=            -45.3349   ZZ=            -45.1860
   XY=             -0.0000   XZ=             -0.0001   YZ=              0.0000
 Traceless Quadrupole moment (field-independent basis, Debye-Ang):
   XX=             -0.2800   YY=              0.0656   ZZ=              0.2145
   XY=             -0.0000   XZ=             -0.0001   YZ=              0.0000
 Octapole moment (field-independent basis, Debye-Ang**2):
  XXX=            -16.7001  YYY=             -0.0000  ZZZ=             -0.0005  XYY=             -0.6350
  XXY=             -0.0001  XXZ=             -0.0001  XZZ=             -8.1252  YZZ=             -0.0000
  YYZ=             -0.0003  XYZ=             -0.0001
 Hexadecapole moment (field-independent basis, Debye-Ang**3):
 XXXX=           -459.3852 YYYY=           -412.6738 ZZZZ=            -43.4499 XXXY=             -0.0001
 XXXZ=             -0.0010 YYYX=              0.0001 YYYZ=              0.0027 ZZZX=             -0.0006
 ZZZY=              0.0031 XXYY=           -139.7961 XXZZ=            -83.1490 YYZZ=            -81.4258
 XXYZ=              0.0010 YYXZ=             -0.0005 ZZXY=              0.0000
 N-N= 3.519775150383D+02 E-N=-3.542558057390D+03  KE= 1.191319668801D+03
 No NMR shielding tensors so no spin-rotation constants.
 Leave Link  601 at Thu Jul 10 13:58:07 2025, MaxMem=  2684354560 cpu:               1.3 elap:               0.1
 (Enter /apps/gaussian/g16c01/g16/l9999.exe)
 Unable to Open any file for archive entry.
 1\1\GINC-GADI-CPU-CLX-0969\SP\RM052X\6-31G(d)\C2Cl2F2\YR9300\10-Jul-20
 25\0\\#P M052X/6-31G*\\Cl2F2_iso2_oct_vaccum_M05-2x\\0,1\C,0,0.228967,
 0.000001,-0.000029\C,0,-1.098866,0.000002,-0.000034\Cl,0,1.124767,-1.4
 80809,0.00002\Cl,0,1.124775,1.480805,-0.00002\F,0,-1.8346,1.089165,-0.
 000009\F,0,-1.834602,-1.08916,0.000049\\Version=ES64L-G16RevC.01\State
 =1-A\HF=-1196.158376\RMSD=9.834e-09\Dipole=-0.1142215,0.000003,-0.0000
 178\Quadrupole=-0.2081996,0.0487567,0.1594429,0.0000066,0.0001026,0.00
 00172\PG=C01 [X(C2Cl2F2)]\\@
 The archive entry for this job was punched.


 THE REASON MAN'S BEST FRIEND IS A DOG IS BECAUSE
 HE WAGS HIS TAIL INSTEAD OF HIS TONGUE.
 Job cpu time:       0 days  0 hours  0 minutes 56.2 seconds.
 Elapsed time:       0 days  0 hours  0 minutes  3.2 seconds.
 File lengths (MBytes):  RWF=     10 Int=      0 D2E=      0 Chk=      2 Scr=      1
 Normal termination of Gaussian 16 at Thu Jul 10 13:58:07 2025.
