 Entering Gaussian System, Link 0=g09
 Initial command:
 /apps/z_install_tree/linux-rocky8-ivybridge/gcc-12.2.0/gaussian-09-D.01-wczn3gur5lpur3omlkzwa2l5ecyxp5ef/g09/l1.exe "/srv/scratch/z5112331/GMX/ligands/difluorodichloroethene/Gau-764306.inp" -scrdir="/srv/scratch/z5112331/GMX/ligands/difluorodichloroethene/"
 Entering Link 1 = /apps/z_install_tree/linux-rocky8-ivybridge/gcc-12.2.0/gaussian-09-D.01-wczn3gur5lpur3omlkzwa2l5ecyxp5ef/g09/l1.exe PID=    764307.
  
 Copyright (c) 1988,1990,1992,1993,1995,1998,2003,2009,2013,
            Gaussian, Inc.  All Rights Reserved.
  
 This is part of the Gaussian(R) 09 program.  It is based on
 the Gaussian(R) 03 system (copyright 2003, Gaussian, Inc.),
 the Gaussian(R) 98 system (copyright 1998, Gaussian, Inc.),
 the Gaussian(R) 94 system (copyright 1995, Gaussian, Inc.),
 the Gaussian 92(TM) system (copyright 1992, Gaussian, Inc.),
 the Gaussian 90(TM) system (copyright 1990, Gaussian, Inc.),
 the Gaussian 88(TM) system (copyright 1988, Gaussian, Inc.),
 the Gaussian 86(TM) system (copyright 1986, Carnegie Mellon
 University), and the Gaussian 82(TM) system (copyright 1983,
 Carnegie Mellon University). Gaussian is a federally registered
 trademark of Gaussian, Inc.
  
 This software contains proprietary and confidential information,
 including trade secrets, belonging to Gaussian, Inc.
  
 This software is provided under written license and may be
 used, copied, transmitted, or stored only in accord with that
 written license.
  
 The following legend is applicable only to US Government
 contracts under FAR:
  
                    RESTRICTED RIGHTS LEGEND
  
 Use, reproduction and disclosure by the US Government is
 subject to restrictions as set forth in subparagraphs (a)
 and (c) of the Commercial Computer Software - Restricted
 Rights clause in FAR 52.227-19.
  
 Gaussian, Inc.
 340 Quinnipiac St., Bldg. 40, Wallingford CT 06492
  
  
 ---------------------------------------------------------------
 Warning -- This program may not be used in any manner that
 competes with the business of Gaussian, Inc. or will provide
 assistance to any competitor of Gaussian, Inc.  The licensee
 of this program is prohibited from giving any competitor of
 Gaussian, Inc. access to this program.  By using this program,
 the user acknowledges that Gaussian, Inc. is engaged in the
 business of creating and licensing software in the field of
 computational chemistry and represents and warrants to the
 licensee that it is not a competitor of Gaussian, Inc. and that
 it will not use this program in any manner prohibited above.
 ---------------------------------------------------------------
  

 Cite this work as:
 Gaussian 09, Revision D.01,
 M. J. Frisch, G. W. Trucks, H. B. Schlegel, G. E. Scuseria, 
 M. A. Robb, J. R. Cheeseman, G. Scalmani, V. Barone, B. Mennucci, 
 G. A. Petersson, H. Nakatsuji, M. Caricato, X. Li, H. P. Hratchian, 
 A. F. Izmaylov, J. Bloino, G. Zheng, J. L. Sonnenberg, M. Hada, 
 M. Ehara, K. Toyota, R. Fukuda, J. Hasegawa, M. Ishida, T. Nakajima, 
 Y. Honda, O. Kitao, H. Nakai, T. Vreven, J. A. Montgomery, Jr., 
 J. E. Peralta, F. Ogliaro, M. Bearpark, J. J. Heyd, E. Brothers, 
 K. N. Kudin, V. N. Staroverov, T. Keith, R. Kobayashi, J. Normand, 
 K. Raghavachari, A. Rendell, J. C. Burant, S. S. Iyengar, J. Tomasi, 
 M. Cossi, N. Rega, J. M. Millam, M. Klene, J. E. Knox, J. B. Cross, 
 V. Bakken, C. Adamo, J. Jaramillo, R. Gomperts, R. E. Stratmann, 
 O. Yazyev, A. J. Austin, R. Cammi, C. Pomelli, J. W. Ochterski, 
 R. L. Martin, K. Morokuma, V. G. Zakrzewski, G. A. Voth, 
 P. Salvador, J. J. Dannenberg, S. Dapprich, A. D. Daniels, 
 O. Farkas, J. B. Foresman, J. V. Ortiz, J. Cioslowski, 
 and D. J. Fox, Gaussian, Inc., Wallingford CT, 2013.
 
 ******************************************
 Gaussian 09:  ES64L-G09RevD.01 24-Apr-2013
                13-Jun-2024 
 ******************************************
 %chk=difluorodichloroethene.chk
 %mem=8GB
 %nprocshared=20
 Will use up to   20 processors via shared memory.
 -------------------------------------------------------------------
 #p opt freq b3lyp/gen nosymm em=gd3 int=ultrafine scf=xqc scfcyc=96
 -------------------------------------------------------------------
 1/14=-1,18=20,19=15,26=4,38=1/1,3;
 2/9=110,12=2,15=1,17=6,18=5,40=1/2;
 3/5=7,11=2,16=1,25=1,30=1,71=1,74=-5,75=-5,124=31/1,2,3;
 4//1;
 5/5=2,7=96,8=3,13=1,38=5/2,8;
 6/7=2,8=2,9=2,10=2,28=1/1;
 7/30=1/1,2,3,16;
 1/14=-1,18=20,19=15,26=4/3(2);
 2/9=110,15=1/2;
 99//99;
 2/9=110,15=1/2;
 3/5=7,6=1,11=2,16=1,25=1,30=1,71=1,74=-5,75=-5,82=7,124=31/1,2,3;
 4/5=5,16=3,69=1/1;
 5/5=2,7=96,8=3,13=1,38=5/2,8;
 7/30=1/1,2,3,16;
 1/14=-1,18=20,19=15,26=4/3(-5);
 2/9=110,15=1/2;
 6/7=2,8=2,9=2,10=2,19=2,28=1/1;
 99/9=1/99;
 Leave Link    1 at Thu Jun 13 10:45:35 2024, MaxMem=  1073741824 cpu:         2.2
 (Enter /apps/z_install_tree/linux-rocky8-ivybridge/gcc-12.2.0/gaussian-09-D.01-wczn3gur5lpur3omlkzwa2l5ecyxp5ef/g09/l101.exe)
 ----------------------
 difluorodichloroethene
 ----------------------
 Symbolic Z-matrix:
 Charge =  0 Multiplicity = 1
 C                     49.83268   35.70312   32.6023 
 C                     50.65044   36.37612   31.79207 
 F                     49.64083   36.08897   34.27364 
 Cl                    48.89913   34.37476   32.00221 
 F                     50.76681   36.04319   30.50912 
 Cl                    51.63612   37.70884   32.23566 
 
 Add virtual bond connecting atoms F3         and C1         Dist= 3.26D+00.
 NAtoms=      6 NQM=        6 NQMF=       0 NMMI=      0 NMMIF=      0
                NMic=       0 NMicF=      0.
                    Isotopes and Nuclear Properties:
 (Nuclear quadrupole moments (NQMom) in fm**2, nuclear magnetic moments (NMagM)
  in nuclear magnetons)

  Atom         1           2           3           4           5           6
 IAtWgt=          12          12          19          35          19          35
 AtmWgt=  12.0000000  12.0000000  18.9984033  34.9688527  18.9984033  34.9688527
 NucSpn=           0           0           1           3           1           3
 AtZEff=   0.0000000   0.0000000   0.0000000   0.0000000   0.0000000   0.0000000
 NQMom=    0.0000000   0.0000000   0.0000000  -8.1650000   0.0000000  -8.1650000
 NMagM=    0.0000000   0.0000000   2.6288670   0.8218740   2.6288670   0.8218740
 AtZNuc=   6.0000000   6.0000000   9.0000000  17.0000000   9.0000000  17.0000000
 Leave Link  101 at Thu Jun 13 10:45:36 2024, MaxMem=  1073741824 cpu:         3.8
 (Enter /apps/z_install_tree/linux-rocky8-ivybridge/gcc-12.2.0/gaussian-09-D.01-wczn3gur5lpur3omlkzwa2l5ecyxp5ef/g09/l103.exe)

 GradGradGradGradGradGradGradGradGradGradGradGradGradGradGradGradGradGrad
 Berny optimization.
 Initialization pass.
                           ----------------------------
                           !    Initial Parameters    !
                           ! (Angstroms and Degrees)  !
 --------------------------                            --------------------------
 ! Name  Definition              Value          Derivative Info.                !
 --------------------------------------------------------------------------------
 ! R1    R(1,2)                  1.3335         estimate D2E/DX2                !
 ! R2    R(1,3)                  1.726          estimate D2E/DX2                !
 ! R3    R(1,4)                  1.7309         estimate D2E/DX2                !
 ! R4    R(2,5)                  1.3305         estimate D2E/DX2                !
 ! R5    R(2,6)                  1.7159         estimate D2E/DX2                !
 ! A1    A(2,1,3)              122.9366         estimate D2E/DX2                !
 ! A2    A(2,1,4)              120.492          estimate D2E/DX2                !
 ! A3    A(3,1,4)              116.5713         estimate D2E/DX2                !
 ! A4    A(1,2,5)              120.879          estimate D2E/DX2                !
 ! A5    A(1,2,6)              125.9571         estimate D2E/DX2                !
 ! A6    A(5,2,6)              113.1639         estimate D2E/DX2                !
 ! D1    D(3,1,2,5)            179.9974         estimate D2E/DX2                !
 ! D2    D(3,1,2,6)             -0.0065         estimate D2E/DX2                !
 ! D3    D(4,1,2,5)              0.0046         estimate D2E/DX2                !
 ! D4    D(4,1,2,6)           -179.9994         estimate D2E/DX2                !
 --------------------------------------------------------------------------------
 Trust Radius=3.00D-01 FncErr=1.00D-07 GrdErr=1.00D-06
 Number of steps in this run=     25 maximum allowed number of steps=    100.
 GradGradGradGradGradGradGradGradGradGradGradGradGradGradGradGradGradGrad

 Leave Link  103 at Thu Jun 13 10:45:36 2024, MaxMem=  1073741824 cpu:         0.3
 (Enter /apps/z_install_tree/linux-rocky8-ivybridge/gcc-12.2.0/gaussian-09-D.01-wczn3gur5lpur3omlkzwa2l5ecyxp5ef/g09/l202.exe)
                          Input orientation:                          
 ---------------------------------------------------------------------
 Center     Atomic      Atomic             Coordinates (Angstroms)
 Number     Number       Type             X           Y           Z
 ---------------------------------------------------------------------
      1          6           0       49.832676   35.703124   32.602296
      2          6           0       50.650444   36.376117   31.792073
      3          9           0       49.640826   36.088965   34.273638
      4         17           0       48.899128   34.374762   32.002207
      5          9           0       50.766812   36.043191   30.509122
      6         17           0       51.636115   37.708841   32.235663
 ---------------------------------------------------------------------
                    Distance matrix (angstroms):
                    1          2          3          4          5
     1  C    0.000000
     2  C    1.333464   0.000000
     3  F    1.725996   2.694429   0.000000
     4  Cl   1.730943   2.667712   2.940749   0.000000
     5  F    2.317247   1.330543   3.929570   2.915682   0.000000
     6  Cl   2.722079   1.715947   3.280018   4.319917   2.551670
                    6
     6  Cl   0.000000
 Symmetry turned off by external request.
 Stoichiometry    C2Cl2F2
 Framework group  C1[X(C2Cl2F2)]
 Deg. of freedom    12
 Full point group                 C1      NOp   1
 Rotational constants (GHZ):      3.4054107      1.4988145      1.0407513
 Leave Link  202 at Thu Jun 13 10:45:36 2024, MaxMem=  1073741824 cpu:         0.6
 (Enter /apps/z_install_tree/linux-rocky8-ivybridge/gcc-12.2.0/gaussian-09-D.01-wczn3gur5lpur3omlkzwa2l5ecyxp5ef/g09/l301.exe)
 General basis read from cards:  (5D, 7F)
 Centers:       4      6      3      5      1      2
 6-311+g(2d,2p)
 ****
 Ernie: Thresh=  0.10000D-02 Tol=  0.10000D-05 Strict=F.
   178 basis functions,   286 primitive gaussians,   190 cartesian basis functions
    32 alpha electrons       32 beta electrons
       nuclear repulsion energy       335.9805554765 Hartrees.
 IExCor=  402 DFT=T Ex+Corr=B3LYP ExCW=0 ScaHFX=  0.200000
 ScaDFX=  0.800000  0.720000  1.000000  0.810000 ScalE2=  1.000000  1.000000
 IRadAn=      5 IRanWt=     -1 IRanGd=            0 ICorTp=0 IEmpDi=131
 NAtoms=    6 NActive=    6 NUniq=    6 SFac= 1.00D+00 NAtFMM=   60 NAOKFM=F Big=F
 Integral buffers will be    131072 words long.
 Raffenetti 2 integral format.
 Two-electron integral symmetry is turned off.
 R6Disp:  Grimme-D3 Dispersion energy=       -0.0035705430 Hartrees.
 Nuclear repulsion after empirical dispersion term =      335.9769849335 Hartrees.
 Leave Link  301 at Thu Jun 13 10:45:36 2024, MaxMem=  1073741824 cpu:         0.9
 (Enter /apps/z_install_tree/linux-rocky8-ivybridge/gcc-12.2.0/gaussian-09-D.01-wczn3gur5lpur3omlkzwa2l5ecyxp5ef/g09/l302.exe)
 NPDir=0 NMtPBC=     1 NCelOv=     1 NCel=       1 NClECP=     1 NCelD=      1
         NCelK=      1 NCelE2=     1 NClLst=     1 CellRange=     0.0.
 One-electron integrals computed using PRISM.
 NBasis=   178 RedAO= T EigKep=  4.46D-05  NBF=   178
 NBsUse=   178 1.00D-06 EigRej= -1.00D+00 NBFU=   178
 Precomputing XC quadrature grid using
 IXCGrd= 4 IRadAn=           5 IRanWt=          -1 IRanGd=           0 AccXCQ= 0.00D+00.
 Generated NRdTot=       0 NPtTot=           0 NUsed=           0 NTot=          32
 NSgBfM=   189   189   189   189   189 MxSgAt=     6 MxSgA2=     6.
 Leave Link  302 at Thu Jun 13 10:45:36 2024, MaxMem=  1073741824 cpu:         2.7
 (Enter /apps/z_install_tree/linux-rocky8-ivybridge/gcc-12.2.0/gaussian-09-D.01-wczn3gur5lpur3omlkzwa2l5ecyxp5ef/g09/l303.exe)
 DipDrv:  MaxL=1.
 Leave Link  303 at Thu Jun 13 10:45:37 2024, MaxMem=  1073741824 cpu:         0.5
 (Enter /apps/z_install_tree/linux-rocky8-ivybridge/gcc-12.2.0/gaussian-09-D.01-wczn3gur5lpur3omlkzwa2l5ecyxp5ef/g09/l401.exe)
 ExpMin= 4.38D-02 ExpMax= 1.06D+05 ExpMxC= 3.62D+03 IAcc=3 IRadAn=         5 AccDes= 0.00D+00
 Harris functional with IExCor=  402 and IRadAn=       5 diagonalized for initial guess.
 HarFok:  IExCor=  402 AccDes= 0.00D+00 IRadAn=         5 IDoV= 1 UseB2=F ITyADJ=14
 ICtDFT=  3500011 ScaDFX=  1.000000  1.000000  1.000000  1.000000
 FoFCou: FMM=F IPFlag=           0 FMFlag=      100000 FMFlg1=           0
         NFxFlg=           0 DoJE=T BraDBF=F KetDBF=T FulRan=T
         wScrn=  0.000000 ICntrl=     500 IOpCl=  0 I1Cent=   200000004 NGrid=           0
         NMat0=    1 NMatS0=      1 NMatT0=    0 NMatD0=    1 NMtDS0=    0 NMtDT0=    0
 Symmetry not used in FoFCou.
 Harris En= -1196.20387657857    
 JPrj=0 DoOrth=F DoCkMO=F.
 Leave Link  401 at Thu Jun 13 10:45:37 2024, MaxMem=  1073741824 cpu:         4.2
 (Enter /apps/z_install_tree/linux-rocky8-ivybridge/gcc-12.2.0/gaussian-09-D.01-wczn3gur5lpur3omlkzwa2l5ecyxp5ef/g09/l502.exe)
 Closed shell SCF:
 Using DIIS extrapolation, IDIIS=  1040.
 Two-electron integral symmetry not used.
 Keep R1 ints in memory in canonical form, NReq=130514660.
 IVT=      124474 IEndB=      124474 NGot=  1073741824 MDV=   946711005
 LenX=   946711005 LenY=   946674464
 Requested convergence on RMS density matrix=1.00D-08 within  96 cycles.
 Requested convergence on MAX density matrix=1.00D-06.
 Requested convergence on             energy=1.00D-06.
 No special actions if energy rises.
 FoFCou: FMM=F IPFlag=           0 FMFlag=           0 FMFlg1=           0
         NFxFlg=           0 DoJE=F BraDBF=F KetDBF=F FulRan=T
         wScrn=  0.000000 ICntrl=     600 IOpCl=  0 I1Cent=           0 NGrid=           0
         NMat0=    1 NMatS0=  15931 NMatT0=    0 NMatD0=    1 NMtDS0=    0 NMtDT0=    0
 Symmetry not used in FoFCou.

 Cycle   1  Pass 1  IDiag  1:
 E= -1196.25967255261    
 DIIS: error= 2.51D-02 at cycle   1 NSaved=   1.
 NSaved= 1 IEnMin= 1 EnMin= -1196.25967255261     IErMin= 1 ErrMin= 2.51D-02
 ErrMax= 2.51D-02  0.00D+00 EMaxC= 1.00D-01 BMatC= 1.44D-01 BMatP= 1.44D-01
 IDIUse=3 WtCom= 7.49D-01 WtEn= 2.51D-01
 Coeff-Com:  0.100D+01
 Coeff-En:   0.100D+01
 Coeff:      0.100D+01
 Gap=     0.235 Goal=   None    Shift=    0.000
 GapD=    0.235 DampG=1.000 DampE=0.500 DampFc=0.5000 IDamp=-1.
 Damping current iteration by 5.00D-01
 RMSDP=7.01D-03 MaxDP=5.37D-01              OVMax= 3.19D-01

 Cycle   2  Pass 1  IDiag  1:
 E= -1196.25411112590     Delta-E=        0.005561426710 Rises=F Damp=T
 DIIS: error= 1.49D-02 at cycle   2 NSaved=   2.
 NSaved= 2 IEnMin= 1 EnMin= -1196.25967255261     IErMin= 2 ErrMin= 1.49D-02
 ErrMax= 1.49D-02  0.00D+00 EMaxC= 1.00D-01 BMatC= 4.88D-02 BMatP= 1.44D-01
 IDIUse=3 WtCom= 8.51D-01 WtEn= 1.49D-01
 Coeff-Com:  0.279D+00 0.721D+00
 Coeff-En:   0.528D+00 0.472D+00
 Coeff:      0.316D+00 0.684D+00
 Gap=     0.330 Goal=   None    Shift=    0.000
 RMSDP=2.47D-03 MaxDP=1.91D-01 DE= 5.56D-03 OVMax= 2.00D-01

 Cycle   3  Pass 1  IDiag  1:
 E= -1196.31305840455     Delta-E=       -0.058947278653 Rises=F Damp=F
 DIIS: error= 1.44D-02 at cycle   3 NSaved=   3.
 NSaved= 3 IEnMin= 3 EnMin= -1196.31305840455     IErMin= 3 ErrMin= 1.44D-02
 ErrMax= 1.44D-02  0.00D+00 EMaxC= 1.00D-01 BMatC= 2.71D-02 BMatP= 4.88D-02
 IDIUse=3 WtCom= 8.56D-01 WtEn= 1.44D-01
 Coeff-Com: -0.152D-01 0.420D+00 0.595D+00
 Coeff-En:   0.000D+00 0.000D+00 0.100D+01
 Coeff:     -0.130D-01 0.360D+00 0.653D+00
 Gap=     0.174 Goal=   None    Shift=    0.000
 RMSDP=9.24D-04 MaxDP=2.56D-02 DE=-5.89D-02 OVMax= 7.56D-02

 Cycle   4  Pass 1  IDiag  1:
 E= -1196.32301728658     Delta-E=       -0.009958882029 Rises=F Damp=F
 DIIS: error= 6.72D-03 at cycle   4 NSaved=   4.
 NSaved= 4 IEnMin= 4 EnMin= -1196.32301728658     IErMin= 4 ErrMin= 6.72D-03
 ErrMax= 6.72D-03  0.00D+00 EMaxC= 1.00D-01 BMatC= 1.11D-02 BMatP= 2.71D-02
 IDIUse=3 WtCom= 9.33D-01 WtEn= 6.72D-02
 Coeff-Com: -0.378D-01 0.131D+00 0.434D+00 0.472D+00
 Coeff-En:   0.000D+00 0.000D+00 0.356D+00 0.644D+00
 Coeff:     -0.353D-01 0.122D+00 0.429D+00 0.484D+00
 Gap=     0.179 Goal=   None    Shift=    0.000
 RMSDP=4.90D-04 MaxDP=1.53D-02 DE=-9.96D-03 OVMax= 3.02D-02

 Cycle   5  Pass 1  IDiag  1:
 E= -1196.33160769336     Delta-E=       -0.008590406777 Rises=F Damp=F
 DIIS: error= 1.25D-03 at cycle   5 NSaved=   5.
 NSaved= 5 IEnMin= 5 EnMin= -1196.33160769336     IErMin= 5 ErrMin= 1.25D-03
 ErrMax= 1.25D-03  0.00D+00 EMaxC= 1.00D-01 BMatC= 2.99D-04 BMatP= 1.11D-02
 IDIUse=3 WtCom= 9.87D-01 WtEn= 1.25D-02
 Coeff-Com: -0.169D-01 0.356D-01 0.170D+00 0.255D+00 0.556D+00
 Coeff-En:   0.000D+00 0.000D+00 0.000D+00 0.000D+00 0.100D+01
 Coeff:     -0.167D-01 0.352D-01 0.168D+00 0.252D+00 0.562D+00
 Gap=     0.176 Goal=   None    Shift=    0.000
 RMSDP=1.07D-04 MaxDP=3.40D-03 DE=-8.59D-03 OVMax= 7.64D-03

 Cycle   6  Pass 1  IDiag  1:
 E= -1196.33186511446     Delta-E=       -0.000257421101 Rises=F Damp=F
 DIIS: error= 4.29D-04 at cycle   6 NSaved=   6.
 NSaved= 6 IEnMin= 6 EnMin= -1196.33186511446     IErMin= 6 ErrMin= 4.29D-04
 ErrMax= 4.29D-04  0.00D+00 EMaxC= 1.00D-01 BMatC= 3.60D-05 BMatP= 2.99D-04
 IDIUse=3 WtCom= 9.96D-01 WtEn= 4.29D-03
 Coeff-Com: -0.679D-02 0.110D-01 0.723D-01 0.124D+00 0.346D+00 0.453D+00
 Coeff-En:   0.000D+00 0.000D+00 0.000D+00 0.000D+00 0.329D-01 0.967D+00
 Coeff:     -0.676D-02 0.110D-01 0.720D-01 0.124D+00 0.345D+00 0.456D+00
 Gap=     0.177 Goal=   None    Shift=    0.000
 RMSDP=3.51D-05 MaxDP=9.69D-04 DE=-2.57D-04 OVMax= 3.08D-03

 Cycle   7  Pass 1  IDiag  1:
 E= -1196.33189465475     Delta-E=       -0.000029540292 Rises=F Damp=F
 DIIS: error= 1.08D-04 at cycle   7 NSaved=   7.
 NSaved= 7 IEnMin= 7 EnMin= -1196.33189465475     IErMin= 7 ErrMin= 1.08D-04
 ErrMax= 1.08D-04  0.00D+00 EMaxC= 1.00D-01 BMatC= 2.88D-06 BMatP= 3.60D-05
 IDIUse=3 WtCom= 9.99D-01 WtEn= 1.08D-03
 Coeff-Com:  0.134D-04-0.155D-02 0.763D-02 0.196D-01 0.760D-01 0.242D+00
 Coeff-Com:  0.656D+00
 Coeff-En:   0.000D+00 0.000D+00 0.000D+00 0.000D+00 0.000D+00 0.369D-01
 Coeff-En:   0.963D+00
 Coeff:      0.134D-04-0.155D-02 0.763D-02 0.195D-01 0.759D-01 0.242D+00
 Coeff:      0.657D+00
 Gap=     0.176 Goal=   None    Shift=    0.000
 RMSDP=1.30D-05 MaxDP=5.39D-04 DE=-2.95D-05 OVMax= 5.73D-04

 Cycle   8  Pass 1  IDiag  1:
 E= -1196.33189717374     Delta-E=       -0.000002518990 Rises=F Damp=F
 DIIS: error= 1.93D-05 at cycle   8 NSaved=   8.
 NSaved= 8 IEnMin= 8 EnMin= -1196.33189717374     IErMin= 8 ErrMin= 1.93D-05
 ErrMax= 1.93D-05  0.00D+00 EMaxC= 1.00D-01 BMatC= 9.95D-08 BMatP= 2.88D-06
 IDIUse=1 WtCom= 1.00D+00 WtEn= 0.00D+00
 Coeff-Com:  0.477D-03-0.121D-02-0.894D-03-0.818D-03 0.180D-03 0.472D-01
 Coeff-Com:  0.200D+00 0.755D+00
 Coeff:      0.477D-03-0.121D-02-0.894D-03-0.818D-03 0.180D-03 0.472D-01
 Coeff:      0.200D+00 0.755D+00
 Gap=     0.176 Goal=   None    Shift=    0.000
 RMSDP=3.13D-06 MaxDP=1.94D-04 DE=-2.52D-06 OVMax= 7.32D-05

 Cycle   9  Pass 1  IDiag  1:
 E= -1196.33189724223     Delta-E=       -0.000000068483 Rises=F Damp=F
 DIIS: error= 9.40D-06 at cycle   9 NSaved=   9.
 NSaved= 9 IEnMin= 9 EnMin= -1196.33189724223     IErMin= 9 ErrMin= 9.40D-06
 ErrMax= 9.40D-06  0.00D+00 EMaxC= 1.00D-01 BMatC= 1.72D-08 BMatP= 9.95D-08
 IDIUse=1 WtCom= 1.00D+00 WtEn= 0.00D+00
 Coeff-Com:  0.259D-03-0.607D-03-0.541D-03-0.994D-03-0.223D-02 0.178D-01
 Coeff-Com:  0.868D-01 0.409D+00 0.490D+00
 Coeff:      0.259D-03-0.607D-03-0.541D-03-0.994D-03-0.223D-02 0.178D-01
 Coeff:      0.868D-01 0.409D+00 0.490D+00
 Gap=     0.176 Goal=   None    Shift=    0.000
 RMSDP=7.06D-07 MaxDP=2.11D-05 DE=-6.85D-08 OVMax= 3.24D-05

 Cycle  10  Pass 1  IDiag  1:
 E= -1196.33189725638     Delta-E=       -0.000000014154 Rises=F Damp=F
 DIIS: error= 1.99D-06 at cycle  10 NSaved=  10.
 NSaved=10 IEnMin=10 EnMin= -1196.33189725638     IErMin=10 ErrMin= 1.99D-06
 ErrMax= 1.99D-06  0.00D+00 EMaxC= 1.00D-01 BMatC= 1.26D-09 BMatP= 1.72D-08
 IDIUse=1 WtCom= 1.00D+00 WtEn= 0.00D+00
 Coeff-Com:  0.678D-04-0.131D-03-0.280D-03-0.706D-03-0.192D-02-0.453D-03
 Coeff-Com:  0.812D-02 0.742D-01 0.221D+00 0.700D+00
 Coeff:      0.678D-04-0.131D-03-0.280D-03-0.706D-03-0.192D-02-0.453D-03
 Coeff:      0.812D-02 0.742D-01 0.221D+00 0.700D+00
 Gap=     0.176 Goal=   None    Shift=    0.000
 RMSDP=2.64D-07 MaxDP=7.80D-06 DE=-1.42D-08 OVMax= 1.19D-05

 Cycle  11  Pass 1  IDiag  1:
 E= -1196.33189725720     Delta-E=       -0.000000000820 Rises=F Damp=F
 DIIS: error= 1.02D-06 at cycle  11 NSaved=  11.
 NSaved=11 IEnMin=11 EnMin= -1196.33189725720     IErMin=11 ErrMin= 1.02D-06
 ErrMax= 1.02D-06  0.00D+00 EMaxC= 1.00D-01 BMatC= 1.57D-10 BMatP= 1.26D-09
 IDIUse=1 WtCom= 1.00D+00 WtEn= 0.00D+00
 Coeff-Com:  0.170D-04-0.258D-04-0.102D-03-0.270D-03-0.723D-03-0.116D-02
 Coeff-Com: -0.491D-03 0.118D-01 0.761D-01 0.372D+00 0.542D+00
 Coeff:      0.170D-04-0.258D-04-0.102D-03-0.270D-03-0.723D-03-0.116D-02
 Coeff:     -0.491D-03 0.118D-01 0.761D-01 0.372D+00 0.542D+00
 Gap=     0.176 Goal=   None    Shift=    0.000
 RMSDP=9.38D-08 MaxDP=2.58D-06 DE=-8.20D-10 OVMax= 5.17D-06

 Cycle  12  Pass 1  IDiag  1:
 E= -1196.33189725736     Delta-E=       -0.000000000158 Rises=F Damp=F
 DIIS: error= 1.80D-07 at cycle  12 NSaved=  12.
 NSaved=12 IEnMin=12 EnMin= -1196.33189725736     IErMin=12 ErrMin= 1.80D-07
 ErrMax= 1.80D-07  0.00D+00 EMaxC= 1.00D-01 BMatC= 6.70D-12 BMatP= 1.57D-10
 IDIUse=1 WtCom= 1.00D+00 WtEn= 0.00D+00
 Coeff-Com: -0.203D-05 0.515D-05-0.609D-05-0.556D-05 0.808D-05-0.280D-03
 Coeff-Com: -0.632D-03-0.287D-02 0.243D-02 0.468D-01 0.171D+00 0.784D+00
 Coeff:     -0.203D-05 0.515D-05-0.609D-05-0.556D-05 0.808D-05-0.280D-03
 Coeff:     -0.632D-03-0.287D-02 0.243D-02 0.468D-01 0.171D+00 0.784D+00
 Gap=     0.176 Goal=   None    Shift=    0.000
 RMSDP=1.70D-08 MaxDP=4.49D-07 DE=-1.58D-10 OVMax= 1.01D-06

 Cycle  13  Pass 1  IDiag  1:
 E= -1196.33189725735     Delta-E=        0.000000000011 Rises=F Damp=F
 DIIS: error= 2.23D-08 at cycle  13 NSaved=  13.
 NSaved=13 IEnMin=12 EnMin= -1196.33189725736     IErMin=13 ErrMin= 2.23D-08
 ErrMax= 2.23D-08  0.00D+00 EMaxC= 1.00D-01 BMatC= 9.93D-14 BMatP= 6.70D-12
 IDIUse=1 WtCom= 1.00D+00 WtEn= 0.00D+00
 Coeff-Com: -0.910D-06 0.190D-05-0.368D-06 0.346D-05 0.154D-04-0.573D-04
 Coeff-Com: -0.205D-03-0.101D-02-0.575D-03 0.313D-02 0.310D-01 0.189D+00
 Coeff-Com:  0.779D+00
 Coeff:     -0.910D-06 0.190D-05-0.368D-06 0.346D-05 0.154D-04-0.573D-04
 Coeff:     -0.205D-03-0.101D-02-0.575D-03 0.313D-02 0.310D-01 0.189D+00
 Coeff:      0.779D+00
 Gap=     0.176 Goal=   None    Shift=    0.000
 RMSDP=3.16D-09 MaxDP=1.08D-07 DE= 1.14D-11 OVMax= 1.33D-07

 SCF Done:  E(RB3LYP) =  -1196.33189726     A.U. after   13 cycles
            NFock= 13  Conv=0.32D-08     -V/T= 2.0029
 KE= 1.192862353496D+03 PE=-3.512479065436D+03 EE= 7.873078297499D+02
 Leave Link  502 at Thu Jun 13 10:45:43 2024, MaxMem=  1073741824 cpu:        58.9
 (Enter /apps/z_install_tree/linux-rocky8-ivybridge/gcc-12.2.0/gaussian-09-D.01-wczn3gur5lpur3omlkzwa2l5ecyxp5ef/g09/l508.exe)
 QCSCF skips out because SCF is already converged.
 Leave Link  508 at Thu Jun 13 10:45:43 2024, MaxMem=  1073741824 cpu:         0.0
 (Enter /apps/z_install_tree/linux-rocky8-ivybridge/gcc-12.2.0/gaussian-09-D.01-wczn3gur5lpur3omlkzwa2l5ecyxp5ef/g09/l601.exe)
 Copying SCF densities to generalized density rwf, IOpCl= 0 IROHF=0.

 **********************************************************************

            Population analysis using the SCF density.

 **********************************************************************

 Alpha  occ. eigenvalues -- -101.61932-101.60831 -24.75940 -24.69163 -10.36957
 Alpha  occ. eigenvalues --  -10.35686  -9.53167  -9.52205  -7.29715  -7.28730
 Alpha  occ. eigenvalues --   -7.28646  -7.28578  -7.27662  -7.27627  -1.30257
 Alpha  occ. eigenvalues --   -1.15015  -0.93902  -0.91405  -0.78859  -0.64686
 Alpha  occ. eigenvalues --   -0.56824  -0.55161  -0.54088  -0.47936  -0.45612
 Alpha  occ. eigenvalues --   -0.43614  -0.40757  -0.39663  -0.38818  -0.37920
 Alpha  occ. eigenvalues --   -0.36384  -0.29189
 Alpha virt. eigenvalues --   -0.11541  -0.04894  -0.04773  -0.01046   0.01799
 Alpha virt. eigenvalues --    0.02991   0.05010   0.05012   0.06159   0.08012
 Alpha virt. eigenvalues --    0.08175   0.08426   0.09777   0.10702   0.11577
 Alpha virt. eigenvalues --    0.11757   0.14082   0.15798   0.17184   0.21005
 Alpha virt. eigenvalues --    0.21717   0.25209   0.28192   0.28742   0.29257
 Alpha virt. eigenvalues --    0.29659   0.32056   0.34154   0.34919   0.36362
 Alpha virt. eigenvalues --    0.37460   0.39038   0.39390   0.40752   0.40942
 Alpha virt. eigenvalues --    0.41896   0.41934   0.43919   0.45046   0.45085
 Alpha virt. eigenvalues --    0.46302   0.49080   0.49962   0.56341   0.58234
 Alpha virt. eigenvalues --    0.59654   0.61362   0.64392   0.68695   0.71602
 Alpha virt. eigenvalues --    0.76885   0.80112   0.80784   0.81725   0.83551
 Alpha virt. eigenvalues --    0.86839   0.92998   1.06750   1.09854   1.12495
 Alpha virt. eigenvalues --    1.15828   1.17304   1.23666   1.32670   1.34059
 Alpha virt. eigenvalues --    1.36198   1.37945   1.40904   1.42150   1.44818
 Alpha virt. eigenvalues --    1.49241   1.60705   1.91078   1.94176   1.98949
 Alpha virt. eigenvalues --    2.01878   2.02160   2.06632   2.12844   2.17899
 Alpha virt. eigenvalues --    2.21028   2.22813   2.23347   2.27451   2.31220
 Alpha virt. eigenvalues --    2.32172   2.34238   2.35928   2.36281   2.36678
 Alpha virt. eigenvalues --    2.43133   2.44433   2.45158   2.46385   2.53300
 Alpha virt. eigenvalues --    2.57579   2.62474   2.65055   2.74311   2.80937
 Alpha virt. eigenvalues --    2.81288   2.90995   3.00780   3.06351   3.20930
 Alpha virt. eigenvalues --    3.21925   3.28958   3.34805   3.39274   3.41231
 Alpha virt. eigenvalues --    3.50769   3.55293   3.70034   3.75569   4.02307
 Alpha virt. eigenvalues --    4.46249   6.26055   6.32063   6.34412   6.38251
 Alpha virt. eigenvalues --    6.45259   6.62328   9.00594   9.04449   9.04577
 Alpha virt. eigenvalues --    9.06607   9.11400   9.19559   9.20579   9.33915
 Alpha virt. eigenvalues --    9.43611   9.63373   9.76829   9.82692  23.38343
 Alpha virt. eigenvalues --   23.94654  25.75574  25.83901  25.96172  26.02040
 Alpha virt. eigenvalues --   27.10049  27.21125  66.76908  66.77442 215.73857
 Alpha virt. eigenvalues --  215.79248
          Condensed to atoms (all electrons):
               1          2          3          4          5          6
     1  C    5.955296  -0.307827   0.244130   0.182689  -0.122072   0.011184
     2  C   -0.307827   5.805821  -0.106333   0.051767   0.162809   0.301815
     3  F    0.244130  -0.106333   9.136739  -0.040979   0.002706   0.013111
     4  Cl   0.182689   0.051767  -0.040979  16.625385  -0.008522   0.015783
     5  F   -0.122072   0.162809   0.002706  -0.008522   9.237925  -0.077347
     6  Cl   0.011184   0.301815   0.013111   0.015783  -0.077347  16.593005
 Mulliken charges:
               1
     1  C    0.036599
     2  C    0.091948
     3  F   -0.249375
     4  Cl   0.173877
     5  F   -0.195499
     6  Cl   0.142449
 Sum of Mulliken charges =   0.00000
 Mulliken charges with hydrogens summed into heavy atoms:
               1
     1  C    0.036599
     2  C    0.091948
     3  F   -0.249375
     4  Cl   0.173877
     5  F   -0.195499
     6  Cl   0.142449
 Electronic spatial extent (au):  <R**2>=        1112097.8087
 Charge=              0.0000 electrons
 Dipole moment (field-independent basis, Debye):
    X=              0.3352    Y=             -0.2230    Z=             -1.6910  Tot=              1.7383
 Quadrupole moment (field-independent basis, Debye-Ang):
   XX=            -10.9359   YY=            -58.9870   ZZ=           -160.3550
   XY=              3.3996   XZ=            -72.0714   YZ=            -67.6070
 Traceless Quadrupole moment (field-independent basis, Debye-Ang):
   XX=             65.8234   YY=             17.7723   ZZ=            -83.5957
   XY=              3.3996   XZ=            -72.0714   YZ=            -67.6070
 Octapole moment (field-independent basis, Debye-Ang**2):
  XXX=          -4186.4746  YYY=          -5510.2319  ZZZ=         -10239.5425  XYY=          -2346.7717
  XXY=           -704.2078  XXZ=          -4411.8919  XZZ=          -7572.5470  YZZ=          -5977.9184
  YYZ=          -4060.0587  XYZ=          -2851.2443
 Hexadecapole moment (field-independent basis, Debye-Ang**3):
 XXXX=        -506008.8078 YYYY=        -376843.2310 ZZZZ=        -547401.1859 XXXY=        -160310.9065
 XXXZ=        -333623.9081 YYYX=        -251507.9704 YYYZ=        -254741.6883 ZZZX=        -496566.5198
 ZZZY=        -374960.0418 XXYY=        -145028.7418 XXZZ=        -402620.9979 YYZZ=        -267323.4832
 XXYZ=        -167704.9676 YYXZ=        -181403.3066 ZZXY=        -280356.7179
 N-N= 3.359769849335D+02 E-N=-3.512479065182D+03  KE= 1.192862353496D+03
 No NMR shielding tensors so no spin-rotation constants.
 Leave Link  601 at Thu Jun 13 10:45:43 2024, MaxMem=  1073741824 cpu:         4.6
 (Enter /apps/z_install_tree/linux-rocky8-ivybridge/gcc-12.2.0/gaussian-09-D.01-wczn3gur5lpur3omlkzwa2l5ecyxp5ef/g09/l701.exe)
 Compute integral first derivatives.
 ... and contract with generalized density number  0.
 R6Disp: Adding Grimme-D3 dispersion energy 1st derivatives to the gradient.
 Leave Link  701 at Thu Jun 13 10:45:43 2024, MaxMem=  1073741824 cpu:         2.6
 (Enter /apps/z_install_tree/linux-rocky8-ivybridge/gcc-12.2.0/gaussian-09-D.01-wczn3gur5lpur3omlkzwa2l5ecyxp5ef/g09/l702.exe)
 L702 exits ... SP integral derivatives will be done elsewhere.
 Leave Link  702 at Thu Jun 13 10:45:44 2024, MaxMem=  1073741824 cpu:         0.3
 (Enter /apps/z_install_tree/linux-rocky8-ivybridge/gcc-12.2.0/gaussian-09-D.01-wczn3gur5lpur3omlkzwa2l5ecyxp5ef/g09/l703.exe)
 Compute integral first derivatives, UseDBF=F ICtDFT=           0.
 Integral derivatives from FoFJK, PRISM(SPDF).
 Calling FoFJK, ICntrl=      2127 FMM=F ISym2X=0 I1Cent= 0 IOpClX= 0 NMat=1 NMatS=1 NMatT=0.
 FoFJK:  IHMeth= 1 ICntrl=    2127 DoSepK=F KAlg= 0 I1Cent=   0 FoldK=F
 IRaf=         0 NMat=   1 IRICut=       1 DoRegI=T DoRafI=F ISym2E= 0.
 FoFCou: FMM=F IPFlag=           0 FMFlag=      100000 FMFlg1=         800
         NFxFlg=           0 DoJE=F BraDBF=F KetDBF=F FulRan=T
         wScrn=  0.000000 ICntrl=    2127 IOpCl=  0 I1Cent=           0 NGrid=           0
         NMat0=    1 NMatS0=      1 NMatT0=    0 NMatD0=    1 NMtDS0=    0 NMtDT0=    0
 Symmetry not used in FoFCou.
 Leave Link  703 at Thu Jun 13 10:45:44 2024, MaxMem=  1073741824 cpu:        15.5
 (Enter /apps/z_install_tree/linux-rocky8-ivybridge/gcc-12.2.0/gaussian-09-D.01-wczn3gur5lpur3omlkzwa2l5ecyxp5ef/g09/l716.exe)
 Dipole        = 1.31886832D-01-8.77287605D-02-6.65298864D-01
 -------------------------------------------------------------------
 Center     Atomic                   Forces (Hartrees/Bohr)
 Number     Number              X              Y              Z
 -------------------------------------------------------------------
      1        6          -0.017147493   -0.000824249    0.053223371
      2        6           0.002940785    0.010522164    0.019135000
      3        9           0.013150388   -0.021231792   -0.100355101
      4       17           0.007041460    0.016269069    0.021542634
      5        9          -0.002849462   -0.001717188    0.004537457
      6       17          -0.003135678   -0.003018003    0.001916639
 -------------------------------------------------------------------
 Cartesian Forces:  Max     0.100355101 RMS     0.029002341
 Leave Link  716 at Thu Jun 13 10:45:45 2024, MaxMem=  1073741824 cpu:         0.5
 (Enter /apps/z_install_tree/linux-rocky8-ivybridge/gcc-12.2.0/gaussian-09-D.01-wczn3gur5lpur3omlkzwa2l5ecyxp5ef/g09/l103.exe)

 GradGradGradGradGradGradGradGradGradGradGradGradGradGradGradGradGradGrad
 Berny optimization.
 FormGI is forming the generalized inverse of G from B-inverse, IUseBI=4.
 Internal  Forces:  Max     0.103385285 RMS     0.029878891
 Search for a local minimum.
 Step number   1 out of a maximum of   25
 All quantities printed in internal units (Hartrees-Bohrs-Radians)
 RMS Force = .29879D-01 SwitMx=.10000D-02 MixMth= 1
 Mixed Optimization -- RFO/linear search
 Second derivative matrix not updated -- first step.
 The second derivative matrix:
                          R1        R2        R3        R4        R5
           R1           0.58695
           R2           0.00000   0.16814
           R3           0.00000   0.00000   0.32410
           R4           0.00000   0.00000   0.00000   0.59378
           R5           0.00000   0.00000   0.00000   0.00000   0.34037
           A1           0.00000   0.00000   0.00000   0.00000   0.00000
           A2           0.00000   0.00000   0.00000   0.00000   0.00000
           A3           0.00000   0.00000   0.00000   0.00000   0.00000
           A4           0.00000   0.00000   0.00000   0.00000   0.00000
           A5           0.00000   0.00000   0.00000   0.00000   0.00000
           A6           0.00000   0.00000   0.00000   0.00000   0.00000
           D1           0.00000   0.00000   0.00000   0.00000   0.00000
           D2           0.00000   0.00000   0.00000   0.00000   0.00000
           D3           0.00000   0.00000   0.00000   0.00000   0.00000
           D4           0.00000   0.00000   0.00000   0.00000   0.00000
                          A1        A2        A3        A4        A5
           A1           0.25000
           A2           0.00000   0.25000
           A3           0.00000   0.00000   0.25000
           A4           0.00000   0.00000   0.00000   0.25000
           A5           0.00000   0.00000   0.00000   0.00000   0.25000
           A6           0.00000   0.00000   0.00000   0.00000   0.00000
           D1           0.00000   0.00000   0.00000   0.00000   0.00000
           D2           0.00000   0.00000   0.00000   0.00000   0.00000
           D3           0.00000   0.00000   0.00000   0.00000   0.00000
           D4           0.00000   0.00000   0.00000   0.00000   0.00000
                          A6        D1        D2        D3        D4
           A6           0.25000
           D1           0.00000   0.02969
           D2           0.00000   0.00000   0.02969
           D3           0.00000   0.00000   0.00000   0.02969
           D4           0.00000   0.00000   0.00000   0.00000   0.02969
 ITU=  0
     Eigenvalues ---    0.02969   0.02969   0.02969   0.16814   0.25000
     Eigenvalues ---    0.25000   0.25000   0.25000   0.32410   0.34037
     Eigenvalues ---    0.58695   0.59378
 RFO step:  Lambda=-5.58053993D-02 EMin= 2.96890367D-02
 Linear search not attempted -- first point.
 Maximum step size (   0.300) exceeded in Quadratic search.
    -- Step size scaled by   0.615
 Iteration  1 RMS(Cart)=  0.07803773 RMS(Int)=  0.02196082
 Iteration  2 RMS(Cart)=  0.01976318 RMS(Int)=  0.00000268
 Iteration  3 RMS(Cart)=  0.00000353 RMS(Int)=  0.00000000
 Iteration  4 RMS(Cart)=  0.00000000 RMS(Int)=  0.00000000
 ITry= 1 IFail=0 DXMaxC= 2.97D-01 DCOld= 1.00D+10 DXMaxT= 3.00D-01 DXLimC= 3.00D+00 Rises=F
 Variable       Old X    -DE/DX   Delta X   Delta X   Delta X     New X
                                 (Linear)    (Quad)   (Total)
    R1        2.51988  -0.01449   0.00000  -0.01387  -0.01387   2.50601
    R2        3.26166  -0.10339   0.00000  -0.28391  -0.28391   2.97775
    R3        3.27101  -0.02375   0.00000  -0.03845  -0.03845   3.23256
    R4        2.51436  -0.00419   0.00000  -0.00397  -0.00397   2.51039
    R5        3.24267  -0.00365   0.00000  -0.00567  -0.00567   3.23700
    A1        2.14565  -0.02144   0.00000  -0.04311  -0.04311   2.10254
    A2        2.10298   0.03466   0.00000   0.06970   0.06970   2.17268
    A3        2.03455  -0.01322   0.00000  -0.02659  -0.02659   2.00797
    A4        2.10974  -0.00299   0.00000  -0.00601  -0.00601   2.10372
    A5        2.19837  -0.00345   0.00000  -0.00693  -0.00693   2.19143
    A6        1.97508   0.00644   0.00000   0.01295   0.01295   1.98803
    D1        3.14155   0.00000   0.00000   0.00000   0.00000   3.14155
    D2       -0.00011   0.00000   0.00000   0.00001   0.00001  -0.00010
    D3        0.00008   0.00000   0.00000  -0.00002  -0.00002   0.00006
    D4       -3.14158   0.00000   0.00000   0.00000   0.00000  -3.14159
         Item               Value     Threshold  Converged?
 Maximum Force            0.103385     0.000450     NO 
 RMS     Force            0.029879     0.000300     NO 
 Maximum Displacement     0.297080     0.001800     NO 
 RMS     Displacement     0.094880     0.001200     NO 
 Predicted change in Energy=-2.627802D-02
 Lowest energy point so far.  Saving SCF results.
 GradGradGradGradGradGradGradGradGradGradGradGradGradGradGradGradGradGrad

 Leave Link  103 at Thu Jun 13 10:45:45 2024, MaxMem=  1073741824 cpu:         0.9
 (Enter /apps/z_install_tree/linux-rocky8-ivybridge/gcc-12.2.0/gaussian-09-D.01-wczn3gur5lpur3omlkzwa2l5ecyxp5ef/g09/l202.exe)
                          Input orientation:                          
 ---------------------------------------------------------------------
 Center     Atomic      Atomic             Coordinates (Angstroms)
 Number     Number       Type             X           Y           Z
 ---------------------------------------------------------------------
      1          6           0       49.829606   35.696790   32.595002
      2          6           0       50.648835   36.379631   31.806841
      3          9           0       49.681247   36.079221   34.116430
      4         17           0       48.873014   34.373869   32.084166
      5          9           0       50.774982   36.058354   30.524022
      6         17           0       51.618317   37.707135   32.288537
 ---------------------------------------------------------------------
                    Distance matrix (angstroms):
                    1          2          3          4          5
     1  C    0.000000
     2  C    1.326125   0.000000
     3  F    1.575756   2.522037   0.000000
     4  Cl   1.710597   2.693238   2.773367   0.000000
     5  F    2.305086   1.328441   3.755274   2.981447   0.000000
     6  Cl   2.708302   1.712948   3.121464   4.323091   2.557969
                    6
     6  Cl   0.000000
 Symmetry turned off by external request.
 Stoichiometry    C2Cl2F2
 Framework group  C1[X(C2Cl2F2)]
 Deg. of freedom    12
 Full point group                 C1      NOp   1
 Rotational constants (GHZ):      3.7779948      1.4951957      1.0712379
 Leave Link  202 at Thu Jun 13 10:45:45 2024, MaxMem=  1073741824 cpu:         1.1
 (Enter /apps/z_install_tree/linux-rocky8-ivybridge/gcc-12.2.0/gaussian-09-D.01-wczn3gur5lpur3omlkzwa2l5ecyxp5ef/g09/l301.exe)
 Basis read from rwf:  (5D, 7F)
 No pseudopotential information found on rwf file.
   178 basis functions,   286 primitive gaussians,   190 cartesian basis functions
    32 alpha electrons       32 beta electrons
       nuclear repulsion energy       341.5022687752 Hartrees.
 IExCor=  402 DFT=T Ex+Corr=B3LYP ExCW=0 ScaHFX=  0.200000
 ScaDFX=  0.800000  0.720000  1.000000  0.810000 ScalE2=  1.000000  1.000000
 IRadAn=      5 IRanWt=     -1 IRanGd=            0 ICorTp=0 IEmpDi=131
 NAtoms=    6 NActive=    6 NUniq=    6 SFac= 1.00D+00 NAtFMM=   60 NAOKFM=F Big=F
 Integral buffers will be    131072 words long.
 Raffenetti 2 integral format.
 Two-electron integral symmetry is turned off.
 R6Disp:  Grimme-D3 Dispersion energy=       -0.0034635155 Hartrees.
 Nuclear repulsion after empirical dispersion term =      341.4988052597 Hartrees.
 No density basis found on file   724.
 Leave Link  301 at Thu Jun 13 10:45:45 2024, MaxMem=  1073741824 cpu:         1.2
 (Enter /apps/z_install_tree/linux-rocky8-ivybridge/gcc-12.2.0/gaussian-09-D.01-wczn3gur5lpur3omlkzwa2l5ecyxp5ef/g09/l302.exe)
 NPDir=0 NMtPBC=     1 NCelOv=     1 NCel=       1 NClECP=     1 NCelD=      1
         NCelK=      1 NCelE2=     1 NClLst=     1 CellRange=     0.0.
 One-electron integrals computed using PRISM.
 NBasis=   178 RedAO= T EigKep=  4.20D-05  NBF=   178
 NBsUse=   178 1.00D-06 EigRej= -1.00D+00 NBFU=   178
 Precomputing XC quadrature grid using
 IXCGrd= 4 IRadAn=           5 IRanWt=          -1 IRanGd=           0 AccXCQ= 0.00D+00.
 Generated NRdTot=       0 NPtTot=           0 NUsed=           0 NTot=          32
 NSgBfM=   188   188   188   188   188 MxSgAt=     6 MxSgA2=     6.
 Leave Link  302 at Thu Jun 13 10:45:45 2024, MaxMem=  1073741824 cpu:         2.9
 (Enter /apps/z_install_tree/linux-rocky8-ivybridge/gcc-12.2.0/gaussian-09-D.01-wczn3gur5lpur3omlkzwa2l5ecyxp5ef/g09/l303.exe)
 DipDrv:  MaxL=1.
 Leave Link  303 at Thu Jun 13 10:45:46 2024, MaxMem=  1073741824 cpu:         2.0
 (Enter /apps/z_install_tree/linux-rocky8-ivybridge/gcc-12.2.0/gaussian-09-D.01-wczn3gur5lpur3omlkzwa2l5ecyxp5ef/g09/l401.exe)
 Initial guess from the checkpoint file:  "difluorodichloroethene.chk"
 B after Tr=    -0.141021   -0.057173    0.299970
         Rot=    0.999999    0.000907   -0.000764    0.000281 Ang=   0.14 deg.
 Guess basis will be translated and rotated to current coordinates.
 JPrj=2 DoOrth=T DoCkMO=T.
 Generating alternative initial guess.
 ExpMin= 4.38D-02 ExpMax= 1.06D+05 ExpMxC= 3.62D+03 IAcc=2 IRadAn=         4 AccDes= 0.00D+00
 Harris functional with IExCor=  402 and IRadAn=       4 diagonalized for initial guess.
 HarFok:  IExCor=  402 AccDes= 0.00D+00 IRadAn=         4 IDoV= 1 UseB2=F ITyADJ=14
 ICtDFT=  3500011 ScaDFX=  1.000000  1.000000  1.000000  1.000000
 FoFCou: FMM=F IPFlag=           0 FMFlag=      100000 FMFlg1=           0
         NFxFlg=           0 DoJE=T BraDBF=F KetDBF=T FulRan=T
         wScrn=  0.000000 ICntrl=     500 IOpCl=  0 I1Cent=   200000004 NGrid=           0
         NMat0=    1 NMatS0=      1 NMatT0=    0 NMatD0=    1 NMtDS0=    0 NMtDT0=    0
 Symmetry not used in FoFCou.
 Harris En= -1196.22857587306    
 Leave Link  401 at Thu Jun 13 10:45:46 2024, MaxMem=  1073741824 cpu:         4.6
 (Enter /apps/z_install_tree/linux-rocky8-ivybridge/gcc-12.2.0/gaussian-09-D.01-wczn3gur5lpur3omlkzwa2l5ecyxp5ef/g09/l502.exe)
 Closed shell SCF:
 Using DIIS extrapolation, IDIIS=  1040.
 Two-electron integral symmetry not used.
 Keep R1 ints in memory in canonical form, NReq=130514660.
 IVT=      124474 IEndB=      124474 NGot=  1073741824 MDV=   946711005
 LenX=   946711005 LenY=   946674464
 Requested convergence on RMS density matrix=1.00D-08 within  96 cycles.
 Requested convergence on MAX density matrix=1.00D-06.
 Requested convergence on             energy=1.00D-06.
 No special actions if energy rises.
 FoFCou: FMM=F IPFlag=           0 FMFlag=           0 FMFlg1=           0
         NFxFlg=           0 DoJE=F BraDBF=F KetDBF=F FulRan=T
         wScrn=  0.000000 ICntrl=     600 IOpCl=  0 I1Cent=           0 NGrid=           0
         NMat0=    1 NMatS0=  15931 NMatT0=    0 NMatD0=    1 NMtDS0=    0 NMtDT0=    0
 Symmetry not used in FoFCou.

 Cycle   1  Pass 1  IDiag  1:
 E= -1196.35808488379    
 DIIS: error= 3.68D-03 at cycle   1 NSaved=   1.
 NSaved= 1 IEnMin= 1 EnMin= -1196.35808488379     IErMin= 1 ErrMin= 3.68D-03
 ErrMax= 3.68D-03  0.00D+00 EMaxC= 1.00D-01 BMatC= 4.48D-03 BMatP= 4.48D-03
 IDIUse=3 WtCom= 9.63D-01 WtEn= 3.68D-02
 Coeff-Com:  0.100D+01
 Coeff-En:   0.100D+01
 Coeff:      0.100D+01
 Gap=     0.463 Goal=   None    Shift=    0.000
 GapD=    0.463 DampG=2.000 DampE=1.000 DampFc=2.0000 IDamp=-1.
 RMSDP=1.05D-03 MaxDP=2.52D-02              OVMax= 2.61D-02

 Cycle   2  Pass 1  IDiag  1:
 E= -1196.36355346753     Delta-E=       -0.005468583734 Rises=F Damp=F
 DIIS: error= 2.06D-03 at cycle   2 NSaved=   2.
 NSaved= 2 IEnMin= 2 EnMin= -1196.36355346753     IErMin= 2 ErrMin= 2.06D-03
 ErrMax= 2.06D-03  0.00D+00 EMaxC= 1.00D-01 BMatC= 6.00D-04 BMatP= 4.48D-03
 IDIUse=3 WtCom= 9.79D-01 WtEn= 2.06D-02
 Coeff-Com:  0.148D+00 0.852D+00
 Coeff-En:   0.000D+00 0.100D+01
 Coeff:      0.145D+00 0.855D+00
 Gap=     0.228 Goal=   None    Shift=    0.000
 RMSDP=2.15D-04 MaxDP=9.46D-03 DE=-5.47D-03 OVMax= 1.07D-02

 Cycle   3  Pass 1  IDiag  1:
 E= -1196.36315577221     Delta-E=        0.000397695321 Rises=F Damp=F
 DIIS: error= 2.53D-03 at cycle   3 NSaved=   3.
 NSaved= 3 IEnMin= 2 EnMin= -1196.36355346753     IErMin= 2 ErrMin= 2.06D-03
 ErrMax= 2.53D-03  0.00D+00 EMaxC= 1.00D-01 BMatC= 1.23D-03 BMatP= 6.00D-04
 IDIUse=3 WtCom= 1.66D-01 WtEn= 8.34D-01
 Coeff-Com: -0.906D-02 0.596D+00 0.413D+00
 Coeff-En:   0.000D+00 0.643D+00 0.357D+00
 Coeff:     -0.150D-02 0.635D+00 0.366D+00
 Gap=     0.225 Goal=   None    Shift=    0.000
 RMSDP=1.75D-04 MaxDP=8.95D-03 DE= 3.98D-04 OVMax= 7.67D-03

 Cycle   4  Pass 1  IDiag  1:
 E= -1196.36393816698     Delta-E=       -0.000782394777 Rises=F Damp=F
 DIIS: error= 2.76D-04 at cycle   4 NSaved=   4.
 NSaved= 4 IEnMin= 4 EnMin= -1196.36393816698     IErMin= 4 ErrMin= 2.76D-04
 ErrMax= 2.76D-04  0.00D+00 EMaxC= 1.00D-01 BMatC= 1.02D-05 BMatP= 6.00D-04
 IDIUse=3 WtCom= 9.97D-01 WtEn= 2.76D-03
 Coeff-Com: -0.131D-01 0.179D+00 0.794D-01 0.754D+00
 Coeff-En:   0.000D+00 0.000D+00 0.000D+00 0.100D+01
 Coeff:     -0.130D-01 0.179D+00 0.791D-01 0.755D+00
 Gap=     0.225 Goal=   None    Shift=    0.000
 RMSDP=3.12D-05 MaxDP=1.53D-03 DE=-7.82D-04 OVMax= 7.74D-04

 Cycle   5  Pass 1  IDiag  1:
 E= -1196.36394309078     Delta-E=       -0.000004923792 Rises=F Damp=F
 DIIS: error= 9.66D-05 at cycle   5 NSaved=   5.
 NSaved= 5 IEnMin= 5 EnMin= -1196.36394309078     IErMin= 5 ErrMin= 9.66D-05
 ErrMax= 9.66D-05  0.00D+00 EMaxC= 1.00D-01 BMatC= 1.63D-06 BMatP= 1.02D-05
 IDIUse=1 WtCom= 1.00D+00 WtEn= 0.00D+00
 Coeff-Com: -0.508D-02 0.639D-01 0.203D-01 0.398D+00 0.523D+00
 Coeff:     -0.508D-02 0.639D-01 0.203D-01 0.398D+00 0.523D+00
 Gap=     0.225 Goal=   None    Shift=    0.000
 RMSDP=1.03D-05 MaxDP=3.32D-04 DE=-4.92D-06 OVMax= 6.30D-04

 Cycle   6  Pass 1  IDiag  1:
 E= -1196.36394446534     Delta-E=       -0.000001374560 Rises=F Damp=F
 DIIS: error= 3.85D-05 at cycle   6 NSaved=   6.
 NSaved= 6 IEnMin= 6 EnMin= -1196.36394446534     IErMin= 6 ErrMin= 3.85D-05
 ErrMax= 3.85D-05  0.00D+00 EMaxC= 1.00D-01 BMatC= 3.62D-07 BMatP= 1.63D-06
 IDIUse=1 WtCom= 1.00D+00 WtEn= 0.00D+00
 Coeff-Com: -0.710D-03-0.440D-03-0.504D-02 0.743D-01 0.334D+00 0.598D+00
 Coeff:     -0.710D-03-0.440D-03-0.504D-02 0.743D-01 0.334D+00 0.598D+00
 Gap=     0.225 Goal=   None    Shift=    0.000
 RMSDP=3.26D-06 MaxDP=1.22D-04 DE=-1.37D-06 OVMax= 2.17D-04

 Cycle   7  Pass 1  IDiag  1:
 E= -1196.36394476346     Delta-E=       -0.000000298127 Rises=F Damp=F
 DIIS: error= 9.84D-06 at cycle   7 NSaved=   7.
 NSaved= 7 IEnMin= 7 EnMin= -1196.36394476346     IErMin= 7 ErrMin= 9.84D-06
 ErrMax= 9.84D-06  0.00D+00 EMaxC= 1.00D-01 BMatC= 2.71D-08 BMatP= 3.62D-07
 IDIUse=1 WtCom= 1.00D+00 WtEn= 0.00D+00
 Coeff-Com:  0.621D-04-0.452D-02-0.425D-02 0.103D-01 0.153D+00 0.311D+00
 Coeff-Com:  0.534D+00
 Coeff:      0.621D-04-0.452D-02-0.425D-02 0.103D-01 0.153D+00 0.311D+00
 Coeff:      0.534D+00
 Gap=     0.225 Goal=   None    Shift=    0.000
 RMSDP=1.35D-06 MaxDP=5.30D-05 DE=-2.98D-07 OVMax= 5.88D-05

 Cycle   8  Pass 1  IDiag  1:
 E= -1196.36394478445     Delta-E=       -0.000000020989 Rises=F Damp=F
 DIIS: error= 3.62D-06 at cycle   8 NSaved=   8.
 NSaved= 8 IEnMin= 8 EnMin= -1196.36394478445     IErMin= 8 ErrMin= 3.62D-06
 ErrMax= 3.62D-06  0.00D+00 EMaxC= 1.00D-01 BMatC= 3.53D-09 BMatP= 2.71D-08
 IDIUse=1 WtCom= 1.00D+00 WtEn= 0.00D+00
 Coeff-Com:  0.990D-04-0.256D-02-0.201D-02-0.214D-02 0.519D-01 0.101D+00
 Coeff-Com:  0.305D+00 0.548D+00
 Coeff:      0.990D-04-0.256D-02-0.201D-02-0.214D-02 0.519D-01 0.101D+00
 Coeff:      0.305D+00 0.548D+00
 Gap=     0.225 Goal=   None    Shift=    0.000
 RMSDP=5.52D-07 MaxDP=2.39D-05 DE=-2.10D-08 OVMax= 2.69D-05

 Cycle   9  Pass 1  IDiag  1:
 E= -1196.36394478781     Delta-E=       -0.000000003355 Rises=F Damp=F
 DIIS: error= 7.96D-07 at cycle   9 NSaved=   9.
 NSaved= 9 IEnMin= 9 EnMin= -1196.36394478781     IErMin= 9 ErrMin= 7.96D-07
 ErrMax= 7.96D-07  0.00D+00 EMaxC= 1.00D-01 BMatC= 1.29D-10 BMatP= 3.53D-09
 IDIUse=1 WtCom= 1.00D+00 WtEn= 0.00D+00
 Coeff-Com:  0.390D-04-0.725D-03-0.503D-03-0.203D-02 0.820D-02 0.129D-01
 Coeff-Com:  0.823D-01 0.230D+00 0.670D+00
 Coeff:      0.390D-04-0.725D-03-0.503D-03-0.203D-02 0.820D-02 0.129D-01
 Coeff:      0.823D-01 0.230D+00 0.670D+00
 Gap=     0.225 Goal=   None    Shift=    0.000
 RMSDP=8.89D-08 MaxDP=3.08D-06 DE=-3.35D-09 OVMax= 5.51D-06

 Cycle  10  Pass 1  IDiag  1:
 E= -1196.36394478792     Delta-E=       -0.000000000109 Rises=F Damp=F
 DIIS: error= 3.24D-07 at cycle  10 NSaved=  10.
 NSaved=10 IEnMin=10 EnMin= -1196.36394478792     IErMin=10 ErrMin= 3.24D-07
 ErrMax= 3.24D-07  0.00D+00 EMaxC= 1.00D-01 BMatC= 2.77D-11 BMatP= 1.29D-10
 IDIUse=1 WtCom= 1.00D+00 WtEn= 0.00D+00
 Coeff-Com:  0.102D-04-0.125D-03-0.427D-04-0.982D-03-0.175D-02-0.487D-02
 Coeff-Com:  0.806D-02 0.581D-01 0.374D+00 0.567D+00
 Coeff:      0.102D-04-0.125D-03-0.427D-04-0.982D-03-0.175D-02-0.487D-02
 Coeff:      0.806D-02 0.581D-01 0.374D+00 0.567D+00
 Gap=     0.225 Goal=   None    Shift=    0.000
 RMSDP=3.13D-08 MaxDP=8.95D-07 DE=-1.09D-10 OVMax= 1.59D-06

 Cycle  11  Pass 1  IDiag  1:
 E= -1196.36394478794     Delta-E=       -0.000000000025 Rises=F Damp=F
 DIIS: error= 8.20D-08 at cycle  11 NSaved=  11.
 NSaved=11 IEnMin=11 EnMin= -1196.36394478794     IErMin=11 ErrMin= 8.20D-08
 ErrMax= 8.20D-08  0.00D+00 EMaxC= 1.00D-01 BMatC= 2.10D-12 BMatP= 2.77D-11
 IDIUse=1 WtCom= 1.00D+00 WtEn= 0.00D+00
 Coeff-Com:  0.102D-05 0.256D-04 0.376D-04-0.176D-03-0.157D-02-0.314D-02
 Coeff-Com: -0.441D-02 0.339D-02 0.107D+00 0.267D+00 0.632D+00
 Coeff:      0.102D-05 0.256D-04 0.376D-04-0.176D-03-0.157D-02-0.314D-02
 Coeff:     -0.441D-02 0.339D-02 0.107D+00 0.267D+00 0.632D+00
 Gap=     0.225 Goal=   None    Shift=    0.000
 RMSDP=1.09D-08 MaxDP=3.99D-07 DE=-2.50D-11 OVMax= 3.51D-07

 Cycle  12  Pass 1  IDiag  1:
 E= -1196.36394478794     Delta-E=       -0.000000000003 Rises=F Damp=F
 DIIS: error= 2.36D-08 at cycle  12 NSaved=  12.
 NSaved=12 IEnMin=12 EnMin= -1196.36394478794     IErMin=12 ErrMin= 2.36D-08
 ErrMax= 2.36D-08  0.00D+00 EMaxC= 1.00D-01 BMatC= 1.09D-13 BMatP= 2.10D-12
 IDIUse=1 WtCom= 1.00D+00 WtEn= 0.00D+00
 Coeff-Com: -0.185D-06 0.160D-04 0.170D-04-0.371D-05-0.493D-03-0.802D-03
 Coeff-Com: -0.212D-02-0.243D-02 0.177D-01 0.714D-01 0.252D+00 0.665D+00
 Coeff:     -0.185D-06 0.160D-04 0.170D-04-0.371D-05-0.493D-03-0.802D-03
 Coeff:     -0.212D-02-0.243D-02 0.177D-01 0.714D-01 0.252D+00 0.665D+00
 Gap=     0.225 Goal=   None    Shift=    0.000
 RMSDP=2.78D-09 MaxDP=7.33D-08 DE=-2.73D-12 OVMax= 1.38D-07

 SCF Done:  E(RB3LYP) =  -1196.36394479     A.U. after   12 cycles
            NFock= 12  Conv=0.28D-08     -V/T= 2.0028
 KE= 1.193035059117D+03 PE=-3.523746707216D+03 EE= 7.928488980515D+02
 Leave Link  502 at Thu Jun 13 10:45:51 2024, MaxMem=  1073741824 cpu:        54.7
 (Enter /apps/z_install_tree/linux-rocky8-ivybridge/gcc-12.2.0/gaussian-09-D.01-wczn3gur5lpur3omlkzwa2l5ecyxp5ef/g09/l508.exe)
 QCSCF skips out because SCF is already converged.
 Leave Link  508 at Thu Jun 13 10:45:52 2024, MaxMem=  1073741824 cpu:         0.0
 (Enter /apps/z_install_tree/linux-rocky8-ivybridge/gcc-12.2.0/gaussian-09-D.01-wczn3gur5lpur3omlkzwa2l5ecyxp5ef/g09/l701.exe)
 Compute integral first derivatives.
 ... and contract with generalized density number  0.
 R6Disp: Adding Grimme-D3 dispersion energy 1st derivatives to the gradient.
 Leave Link  701 at Thu Jun 13 10:45:52 2024, MaxMem=  1073741824 cpu:         2.0
 (Enter /apps/z_install_tree/linux-rocky8-ivybridge/gcc-12.2.0/gaussian-09-D.01-wczn3gur5lpur3omlkzwa2l5ecyxp5ef/g09/l702.exe)
 L702 exits ... SP integral derivatives will be done elsewhere.
 Leave Link  702 at Thu Jun 13 10:45:52 2024, MaxMem=  1073741824 cpu:         0.3
 (Enter /apps/z_install_tree/linux-rocky8-ivybridge/gcc-12.2.0/gaussian-09-D.01-wczn3gur5lpur3omlkzwa2l5ecyxp5ef/g09/l703.exe)
 Compute integral first derivatives, UseDBF=F ICtDFT=           0.
 Integral derivatives from FoFJK, PRISM(SPDF).
 Calling FoFJK, ICntrl=      2127 FMM=F ISym2X=0 I1Cent= 0 IOpClX= 0 NMat=1 NMatS=1 NMatT=0.
 FoFJK:  IHMeth= 1 ICntrl=    2127 DoSepK=F KAlg= 0 I1Cent=   0 FoldK=F
 IRaf=         0 NMat=   1 IRICut=       1 DoRegI=T DoRafI=F ISym2E= 0.
 FoFCou: FMM=F IPFlag=           0 FMFlag=      100000 FMFlg1=         800
         NFxFlg=           0 DoJE=F BraDBF=F KetDBF=F FulRan=T
         wScrn=  0.000000 ICntrl=    2127 IOpCl=  0 I1Cent=           0 NGrid=           0
         NMat0=    1 NMatS0=      1 NMatT0=    0 NMatD0=    1 NMtDS0=    0 NMtDT0=    0
 Symmetry not used in FoFCou.
 Leave Link  703 at Thu Jun 13 10:45:53 2024, MaxMem=  1073741824 cpu:        15.7
 (Enter /apps/z_install_tree/linux-rocky8-ivybridge/gcc-12.2.0/gaussian-09-D.01-wczn3gur5lpur3omlkzwa2l5ecyxp5ef/g09/l716.exe)
 Dipole        = 7.40110960D-02-7.19975504D-02-4.35374886D-01
 -------------------------------------------------------------------
 Center     Atomic                   Forces (Hartrees/Bohr)
 Number     Number              X              Y              Z
 -------------------------------------------------------------------
      1        6          -0.013985235    0.008424184    0.068185957
      2        6           0.002756413    0.006751663    0.009465536
      3        9           0.009799788   -0.021214844   -0.089479750
      4       17           0.004295463    0.008849832    0.010214454
      5        9          -0.001341120   -0.001439853    0.000418272
      6       17          -0.001525309   -0.001370981    0.001195531
 -------------------------------------------------------------------
 Cartesian Forces:  Max     0.089479750 RMS     0.027710985
 Leave Link  716 at Thu Jun 13 10:45:53 2024, MaxMem=  1073741824 cpu:         0.4
 (Enter /apps/z_install_tree/linux-rocky8-ivybridge/gcc-12.2.0/gaussian-09-D.01-wczn3gur5lpur3omlkzwa2l5ecyxp5ef/g09/l103.exe)

 GradGradGradGradGradGradGradGradGradGradGradGradGradGradGradGradGradGrad
 Berny optimization.
 Using GEDIIS/GDIIS optimizer.
 FormGI is forming the generalized inverse of G from B-inverse, IUseBI=4.
 Internal  Forces:  Max     0.092465975 RMS     0.024743385
 Search for a local minimum.
 Step number   2 out of a maximum of   25
 All quantities printed in internal units (Hartrees-Bohrs-Radians)
 RMS Force = .24743D-01 SwitMx=.10000D-02 MixMth= 1
 Mixed Optimization -- RFO/linear search
 Update second derivatives using D2CorX and points    1    2
 DE= -3.20D-02 DEPred=-2.63D-02 R= 1.22D+00
 TightC=F SS=  1.41D+00  RLast= 3.00D-01 DXNew= 5.0454D-01 9.0000D-01
 Trust test= 1.22D+00 RLast= 3.00D-01 DXMaxT set to 5.05D-01
 The second derivative matrix:
                          R1        R2        R3        R4        R5
           R1           0.60008
           R2          -0.00507   0.04757
           R3           0.01372  -0.01484   0.33768
           R4           0.00582   0.00076   0.00631   0.59628
           R5           0.00262  -0.00174   0.00268   0.00118   0.34089
           A1           0.01296  -0.01162   0.01302   0.00590   0.00255
           A2          -0.02227   0.01732  -0.02258  -0.01008  -0.00440
           A3           0.00931  -0.00570   0.00956   0.00418   0.00185
           A4           0.00193  -0.00149   0.00196   0.00087   0.00038
           A5           0.00143  -0.00259   0.00134   0.00068   0.00027
           A6          -0.00336   0.00408  -0.00329  -0.00156  -0.00065
           D1           0.00000   0.00000   0.00000   0.00000   0.00000
           D2           0.00000   0.00000   0.00000   0.00000   0.00000
           D3           0.00000   0.00000   0.00000   0.00000   0.00000
           D4           0.00000   0.00000   0.00000   0.00000   0.00000
                          A1        A2        A3        A4        A5
           A1           0.26243
           A2          -0.02151   0.28715
           A3           0.00908  -0.01564   0.25657
           A4           0.00186  -0.00322   0.00135   0.25028
           A5           0.00130  -0.00228   0.00098   0.00020   0.25012
           A6          -0.00317   0.00550  -0.00233  -0.00048  -0.00032
           D1           0.00000   0.00000   0.00000   0.00000   0.00000
           D2           0.00000   0.00000   0.00000   0.00000   0.00000
           D3           0.00000   0.00000   0.00000   0.00000   0.00000
           D4           0.00000   0.00000   0.00000   0.00000   0.00000
                          A6        D1        D2        D3        D4
           A6           0.25080
           D1           0.00000   0.02969
           D2           0.00000   0.00000   0.02969
           D3           0.00000   0.00000   0.00000   0.02969
           D4           0.00000   0.00000   0.00000   0.00000   0.02969
 ITU=  1  0
 Use linear search instead of GDIIS.
     Eigenvalues ---    0.02969   0.02969   0.02969   0.04512   0.24997
     Eigenvalues ---    0.25000   0.25000   0.28988   0.33937   0.35469
     Eigenvalues ---    0.59222   0.60859
 RFO step:  Lambda=-6.22417343D-03 EMin= 2.96890367D-02
 Quartic linear search produced a step of  1.60292.
 Iteration  1 RMS(Cart)=  0.06413517 RMS(Int)=  0.11727619
 Iteration  2 RMS(Cart)=  0.04646265 RMS(Int)=  0.06563703
 Iteration  3 RMS(Cart)=  0.04654068 RMS(Int)=  0.01400234
 Iteration  4 RMS(Cart)=  0.01260876 RMS(Int)=  0.00000668
 Iteration  5 RMS(Cart)=  0.00000886 RMS(Int)=  0.00000000
 Iteration  6 RMS(Cart)=  0.00000000 RMS(Int)=  0.00000000
 ITry= 1 IFail=0 DXMaxC= 5.61D-01 DCOld= 1.00D+10 DXMaxT= 5.05D-01 DXLimC= 3.00D+00 Rises=F
 Variable       Old X    -DE/DX   Delta X   Delta X   Delta X     New X
                                 (Linear)    (Quad)   (Total)
    R1        2.50601  -0.00462  -0.02223   0.01708  -0.00515   2.50086
    R2        2.97775  -0.09247  -0.45509  -0.19845  -0.65354   2.32421
    R3        3.23256  -0.01230  -0.06163   0.02536  -0.03628   3.19628
    R4        2.51039  -0.00018  -0.00637   0.00978   0.00341   2.51381
    R5        3.23700  -0.00159  -0.00908   0.00575  -0.00333   3.23367
    A1        2.10254  -0.01090  -0.06910   0.03943  -0.02967   2.07287
    A2        2.17268   0.01687   0.11172  -0.07125   0.04047   2.21314
    A3        2.00797  -0.00597  -0.04262   0.03183  -0.01079   1.99718
    A4        2.10372  -0.00145  -0.00964   0.00619  -0.00345   2.10027
    A5        2.19143  -0.00213  -0.01111   0.00262  -0.00849   2.18294
    A6        1.98803   0.00358   0.02075  -0.00881   0.01195   1.99998
    D1        3.14155   0.00000   0.00000   0.00002   0.00002   3.14158
    D2       -0.00010   0.00000   0.00002  -0.00003  -0.00001  -0.00011
    D3        0.00006   0.00000  -0.00002   0.00003   0.00001   0.00007
    D4       -3.14159   0.00000  -0.00001  -0.00002  -0.00003   3.14157
         Item               Value     Threshold  Converged?
 Maximum Force            0.092466     0.000450     NO 
 RMS     Force            0.024743     0.000300     NO 
 Maximum Displacement     0.561128     0.001800     NO 
 RMS     Displacement     0.165767     0.001200     NO 
 Predicted change in Energy=-5.229706D-02
 Lowest energy point so far.  Saving SCF results.
 GradGradGradGradGradGradGradGradGradGradGradGradGradGradGradGradGradGrad

 Leave Link  103 at Thu Jun 13 10:45:53 2024, MaxMem=  1073741824 cpu:         1.0
 (Enter /apps/z_install_tree/linux-rocky8-ivybridge/gcc-12.2.0/gaussian-09-D.01-wczn3gur5lpur3omlkzwa2l5ecyxp5ef/g09/l202.exe)
                          Input orientation:                          
 ---------------------------------------------------------------------
 Center     Atomic      Atomic             Coordinates (Angstroms)
 Number     Number       Type             X           Y           Z
 ---------------------------------------------------------------------
      1          6           0       49.824665   35.706270   32.636847
      2          6           0       50.642386   36.388107   31.850835
      3          9           0       49.732623   36.031186   33.819494
      4         17           0       48.854874   34.392935   32.194706
      5          9           0       50.766108   36.063514   30.566742
      6         17           0       51.605345   37.712987   32.346374
 ---------------------------------------------------------------------
                    Distance matrix (angstroms):
                    1          2          3          4          5
     1  C    0.000000
     2  C    1.323400   0.000000
     3  F    1.229916   2.197881   0.000000
     4  Cl   1.691400   2.700771   2.468652   0.000000
     5  F    2.302015   1.330248   3.413141   3.015613   0.000000
     6  Cl   2.698539   1.711185   2.916441   4.314029   2.567522
                    6
     6  Cl   0.000000
 Symmetry turned off by external request.
 Stoichiometry    C2Cl2F2
 Framework group  C1[X(C2Cl2F2)]
 Deg. of freedom    12
 Full point group                 C1      NOp   1
 Rotational constants (GHZ):      4.6113386      1.4990508      1.1312914
 Leave Link  202 at Thu Jun 13 10:45:53 2024, MaxMem=  1073741824 cpu:         0.9
 (Enter /apps/z_install_tree/linux-rocky8-ivybridge/gcc-12.2.0/gaussian-09-D.01-wczn3gur5lpur3omlkzwa2l5ecyxp5ef/g09/l301.exe)
 Basis read from rwf:  (5D, 7F)
 No pseudopotential information found on rwf file.
   178 basis functions,   286 primitive gaussians,   190 cartesian basis functions
    32 alpha electrons       32 beta electrons
       nuclear repulsion energy       354.9161369553 Hartrees.
 IExCor=  402 DFT=T Ex+Corr=B3LYP ExCW=0 ScaHFX=  0.200000
 ScaDFX=  0.800000  0.720000  1.000000  0.810000 ScalE2=  1.000000  1.000000
 IRadAn=      5 IRanWt=     -1 IRanGd=            0 ICorTp=0 IEmpDi=131
 NAtoms=    6 NActive=    6 NUniq=    6 SFac= 1.00D+00 NAtFMM=   60 NAOKFM=F Big=F
 Integral buffers will be    131072 words long.
 Raffenetti 2 integral format.
 Two-electron integral symmetry is turned off.
 R6Disp:  Grimme-D3 Dispersion energy=       -0.0030819151 Hartrees.
 Nuclear repulsion after empirical dispersion term =      354.9130550402 Hartrees.
 No density basis found on file   724.
 Leave Link  301 at Thu Jun 13 10:45:53 2024, MaxMem=  1073741824 cpu:         1.2
 (Enter /apps/z_install_tree/linux-rocky8-ivybridge/gcc-12.2.0/gaussian-09-D.01-wczn3gur5lpur3omlkzwa2l5ecyxp5ef/g09/l302.exe)
 NPDir=0 NMtPBC=     1 NCelOv=     1 NCel=       1 NClECP=     1 NCelD=      1
         NCelK=      1 NCelE2=     1 NClLst=     1 CellRange=     0.0.
 One-electron integrals computed using PRISM.
 NBasis=   178 RedAO= T EigKep=  4.11D-05  NBF=   178
 NBsUse=   178 1.00D-06 EigRej= -1.00D+00 NBFU=   178
 Precomputing XC quadrature grid using
 IXCGrd= 4 IRadAn=           5 IRanWt=          -1 IRanGd=           0 AccXCQ= 0.00D+00.
 Generated NRdTot=       0 NPtTot=           0 NUsed=           0 NTot=          32
 NSgBfM=   188   188   188   188   188 MxSgAt=     6 MxSgA2=     6.
 Leave Link  302 at Thu Jun 13 10:45:54 2024, MaxMem=  1073741824 cpu:         2.5
 (Enter /apps/z_install_tree/linux-rocky8-ivybridge/gcc-12.2.0/gaussian-09-D.01-wczn3gur5lpur3omlkzwa2l5ecyxp5ef/g09/l303.exe)
 DipDrv:  MaxL=1.
 Leave Link  303 at Thu Jun 13 10:45:54 2024, MaxMem=  1073741824 cpu:         3.6
 (Enter /apps/z_install_tree/linux-rocky8-ivybridge/gcc-12.2.0/gaussian-09-D.01-wczn3gur5lpur3omlkzwa2l5ecyxp5ef/g09/l401.exe)
 Initial guess from the checkpoint file:  "difluorodichloroethene.chk"
 B after Tr=    -0.221154   -0.088737    0.473160
         Rot=    0.999998    0.001487   -0.001253    0.000460 Ang=   0.23 deg.
 Guess basis will be translated and rotated to current coordinates.
 JPrj=2 DoOrth=T DoCkMO=T.
 Generating alternative initial guess.
 ExpMin= 4.38D-02 ExpMax= 1.06D+05 ExpMxC= 3.62D+03 IAcc=2 IRadAn=         4 AccDes= 0.00D+00
 Harris functional with IExCor=  402 and IRadAn=       4 diagonalized for initial guess.
 HarFok:  IExCor=  402 AccDes= 0.00D+00 IRadAn=         4 IDoV= 1 UseB2=F ITyADJ=14
 ICtDFT=  3500011 ScaDFX=  1.000000  1.000000  1.000000  1.000000
 FoFCou: FMM=F IPFlag=           0 FMFlag=      100000 FMFlg1=           0
         NFxFlg=           0 DoJE=T BraDBF=F KetDBF=T FulRan=T
         wScrn=  0.000000 ICntrl=     500 IOpCl=  0 I1Cent=   200000004 NGrid=           0
         NMat0=    1 NMatS0=      1 NMatT0=    0 NMatD0=    1 NMtDS0=    0 NMtDT0=    0
 Symmetry not used in FoFCou.
 Harris En= -1196.22545937412    
 Leave Link  401 at Thu Jun 13 10:45:54 2024, MaxMem=  1073741824 cpu:         3.9
 (Enter /apps/z_install_tree/linux-rocky8-ivybridge/gcc-12.2.0/gaussian-09-D.01-wczn3gur5lpur3omlkzwa2l5ecyxp5ef/g09/l502.exe)
 Closed shell SCF:
 Using DIIS extrapolation, IDIIS=  1040.
 Two-electron integral symmetry not used.
 Keep R1 ints in memory in canonical form, NReq=130514660.
 IVT=      124474 IEndB=      124474 NGot=  1073741824 MDV=   946711005
 LenX=   946711005 LenY=   946674464
 Requested convergence on RMS density matrix=1.00D-08 within  96 cycles.
 Requested convergence on MAX density matrix=1.00D-06.
 Requested convergence on             energy=1.00D-06.
 No special actions if energy rises.
 FoFCou: FMM=F IPFlag=           0 FMFlag=           0 FMFlg1=           0
         NFxFlg=           0 DoJE=F BraDBF=F KetDBF=F FulRan=T
         wScrn=  0.000000 ICntrl=     600 IOpCl=  0 I1Cent=           0 NGrid=           0
         NMat0=    1 NMatS0=  15931 NMatT0=    0 NMatD0=    1 NMtDS0=    0 NMtDT0=    0
 Symmetry not used in FoFCou.

 Cycle   1  Pass 1  IDiag  1:
 E= -1196.32759196275    
 DIIS: error= 1.23D-02 at cycle   1 NSaved=   1.
 NSaved= 1 IEnMin= 1 EnMin= -1196.32759196275     IErMin= 1 ErrMin= 1.23D-02
 ErrMax= 1.23D-02  0.00D+00 EMaxC= 1.00D-01 BMatC= 5.43D-02 BMatP= 5.43D-02
 IDIUse=3 WtCom= 8.77D-01 WtEn= 1.23D-01
 Coeff-Com:  0.100D+01
 Coeff-En:   0.100D+01
 Coeff:      0.100D+01
 Recover alternate guess density for next cycle.
 RMSDP=3.59D-03 MaxDP=1.99D-01              OVMax= 0.00D+00

 Cycle   2  Pass 1  IDiag  1:
 E= -1196.33626262123     Delta-E=       -0.008670658473 Rises=F Damp=F
 DIIS: error= 2.12D-02 at cycle   2 NSaved=   2.
 NSaved= 2 IEnMin= 2 EnMin= -1196.33626262123     IErMin= 1 ErrMin= 1.23D-02
 ErrMax= 2.12D-02  0.00D+00 EMaxC= 1.00D-01 BMatC= 1.17D-01 BMatP= 5.43D-02
 IDIUse=2 WtCom= 0.00D+00 WtEn= 1.00D+00
 Coeff-En:   0.253D+00 0.747D+00
 Coeff:      0.253D+00 0.747D+00
 Gap=     0.232 Goal=   None    Shift=    0.000
 RMSDP=2.85D-03 MaxDP=1.61D-01 DE=-8.67D-03 OVMax= 6.59D-02

 Cycle   3  Pass 1  IDiag  1:
 E= -1196.34868558106     Delta-E=       -0.012422959833 Rises=F Damp=F
 DIIS: error= 1.59D-02 at cycle   3 NSaved=   3.
 NSaved= 3 IEnMin= 3 EnMin= -1196.34868558106     IErMin= 1 ErrMin= 1.23D-02
 ErrMax= 1.59D-02  0.00D+00 EMaxC= 1.00D-01 BMatC= 4.81D-02 BMatP= 5.43D-02
 IDIUse=3 WtCom= 8.41D-01 WtEn= 1.59D-01
 Coeff-Com:  0.154D+00 0.318D+00 0.528D+00
 Coeff-En:   0.000D+00 0.413D+00 0.587D+00
 Coeff:      0.129D+00 0.333D+00 0.538D+00
 Gap=     0.246 Goal=   None    Shift=    0.000
 RMSDP=1.61D-03 MaxDP=9.67D-02 DE=-1.24D-02 OVMax= 4.81D-02

 Cycle   4  Pass 1  IDiag  1:
 E= -1196.37585667322     Delta-E=       -0.027171092163 Rises=F Damp=F
 DIIS: error= 7.06D-03 at cycle   4 NSaved=   4.
 NSaved= 4 IEnMin= 4 EnMin= -1196.37585667322     IErMin= 4 ErrMin= 7.06D-03
 ErrMax= 7.06D-03  0.00D+00 EMaxC= 1.00D-01 BMatC= 6.38D-03 BMatP= 4.81D-02
 IDIUse=3 WtCom= 9.29D-01 WtEn= 7.06D-02
 Coeff-Com:  0.130D-01 0.446D-01 0.279D+00 0.664D+00
 Coeff-En:   0.000D+00 0.000D+00 0.929D-01 0.907D+00
 Coeff:      0.120D-01 0.415D-01 0.265D+00 0.681D+00
 Gap=     0.234 Goal=   None    Shift=    0.000
 RMSDP=3.58D-04 MaxDP=1.02D-02 DE=-2.72D-02 OVMax= 1.27D-02

 Cycle   5  Pass 1  IDiag  1:
 E= -1196.37972082902     Delta-E=       -0.003864155801 Rises=F Damp=F
 DIIS: error= 1.29D-03 at cycle   5 NSaved=   5.
 NSaved= 5 IEnMin= 5 EnMin= -1196.37972082902     IErMin= 5 ErrMin= 1.29D-03
 ErrMax= 1.29D-03  0.00D+00 EMaxC= 1.00D-01 BMatC= 2.50D-04 BMatP= 6.38D-03
 IDIUse=3 WtCom= 9.87D-01 WtEn= 1.29D-02
 Coeff-Com:  0.333D-02 0.406D-02 0.853D-01 0.292D+00 0.615D+00
 Coeff-En:   0.000D+00 0.000D+00 0.000D+00 0.000D+00 0.100D+01
 Coeff:      0.329D-02 0.400D-02 0.842D-01 0.288D+00 0.620D+00
 Gap=     0.234 Goal=   None    Shift=    0.000
 RMSDP=9.28D-05 MaxDP=3.84D-03 DE=-3.86D-03 OVMax= 3.63D-03

 Cycle   6  Pass 1  IDiag  1:
 E= -1196.37984756966     Delta-E=       -0.000126740640 Rises=F Damp=F
 DIIS: error= 4.96D-04 at cycle   6 NSaved=   6.
 NSaved= 6 IEnMin= 6 EnMin= -1196.37984756966     IErMin= 6 ErrMin= 4.96D-04
 ErrMax= 4.96D-04  0.00D+00 EMaxC= 1.00D-01 BMatC= 3.91D-05 BMatP= 2.50D-04
 IDIUse=3 WtCom= 9.95D-01 WtEn= 4.96D-03
 Coeff-Com: -0.147D-02 0.228D-03 0.304D-01 0.122D+00 0.369D+00 0.481D+00
 Coeff-En:   0.000D+00 0.000D+00 0.000D+00 0.000D+00 0.942D-01 0.906D+00
 Coeff:     -0.146D-02 0.227D-03 0.303D-01 0.121D+00 0.367D+00 0.483D+00
 Gap=     0.234 Goal=   None    Shift=    0.000
 RMSDP=3.43D-05 MaxDP=1.03D-03 DE=-1.27D-04 OVMax= 1.77D-03

 Cycle   7  Pass 1  IDiag  1:
 E= -1196.37987475375     Delta-E=       -0.000027184083 Rises=F Damp=F
 DIIS: error= 8.29D-05 at cycle   7 NSaved=   7.
 NSaved= 7 IEnMin= 7 EnMin= -1196.37987475375     IErMin= 7 ErrMin= 8.29D-05
 ErrMax= 8.29D-05  0.00D+00 EMaxC= 1.00D-01 BMatC= 1.47D-06 BMatP= 3.91D-05
 IDIUse=1 WtCom= 1.00D+00 WtEn= 0.00D+00
 Coeff-Com: -0.502D-03-0.252D-03 0.762D-02 0.363D-01 0.135D+00 0.235D+00
 Coeff-Com:  0.587D+00
 Coeff:     -0.502D-03-0.252D-03 0.762D-02 0.363D-01 0.135D+00 0.235D+00
 Coeff:      0.587D+00
 Gap=     0.234 Goal=   None    Shift=    0.000
 RMSDP=1.03D-05 MaxDP=4.46D-04 DE=-2.72D-05 OVMax= 6.03D-04

 Cycle   8  Pass 1  IDiag  1:
 E= -1196.37987601220     Delta-E=       -0.000001258451 Rises=F Damp=F
 DIIS: error= 2.80D-05 at cycle   8 NSaved=   8.
 NSaved= 8 IEnMin= 8 EnMin= -1196.37987601220     IErMin= 8 ErrMin= 2.80D-05
 ErrMax= 2.80D-05  0.00D+00 EMaxC= 1.00D-01 BMatC= 1.34D-07 BMatP= 1.47D-06
 IDIUse=1 WtCom= 1.00D+00 WtEn= 0.00D+00
 Coeff-Com: -0.273D-03-0.126D-03 0.203D-02 0.111D-01 0.455D-01 0.809D-01
 Coeff-Com:  0.294D+00 0.567D+00
 Coeff:     -0.273D-03-0.126D-03 0.203D-02 0.111D-01 0.455D-01 0.809D-01
 Coeff:      0.294D+00 0.567D+00
 Gap=     0.234 Goal=   None    Shift=    0.000
 RMSDP=2.50D-06 MaxDP=7.23D-05 DE=-1.26D-06 OVMax= 2.39D-04

 Cycle   9  Pass 1  IDiag  1:
 E= -1196.37987610674     Delta-E=       -0.000000094540 Rises=F Damp=F
 DIIS: error= 1.26D-05 at cycle   9 NSaved=   9.
 NSaved= 9 IEnMin= 9 EnMin= -1196.37987610674     IErMin= 9 ErrMin= 1.26D-05
 ErrMax= 1.26D-05  0.00D+00 EMaxC= 1.00D-01 BMatC= 3.06D-08 BMatP= 1.34D-07
 IDIUse=1 WtCom= 1.00D+00 WtEn= 0.00D+00
 Coeff-Com: -0.263D-04-0.458D-04-0.913D-04 0.485D-03 0.399D-02 0.570D-02
 Coeff-Com:  0.773D-01 0.358D+00 0.555D+00
 Coeff:     -0.263D-04-0.458D-04-0.913D-04 0.485D-03 0.399D-02 0.570D-02
 Coeff:      0.773D-01 0.358D+00 0.555D+00
 Gap=     0.234 Goal=   None    Shift=    0.000
 RMSDP=9.93D-07 MaxDP=3.07D-05 DE=-9.45D-08 OVMax= 7.94D-05

 Cycle  10  Pass 1  IDiag  1:
 E= -1196.37987613558     Delta-E=       -0.000000028842 Rises=F Damp=F
 DIIS: error= 1.19D-06 at cycle  10 NSaved=  10.
 NSaved=10 IEnMin=10 EnMin= -1196.37987613558     IErMin=10 ErrMin= 1.19D-06
 ErrMax= 1.19D-06  0.00D+00 EMaxC= 1.00D-01 BMatC= 3.47D-10 BMatP= 3.06D-08
 IDIUse=1 WtCom= 1.00D+00 WtEn= 0.00D+00
 Coeff-Com:  0.188D-05-0.749D-05-0.800D-04-0.175D-03-0.236D-03-0.681D-03
 Coeff-Com:  0.176D-01 0.873D-01 0.180D+00 0.716D+00
 Coeff:      0.188D-05-0.749D-05-0.800D-04-0.175D-03-0.236D-03-0.681D-03
 Coeff:      0.176D-01 0.873D-01 0.180D+00 0.716D+00
 Gap=     0.234 Goal=   None    Shift=    0.000
 RMSDP=1.38D-07 MaxDP=5.17D-06 DE=-2.88D-08 OVMax= 4.79D-06

 Cycle  11  Pass 1  IDiag  1:
 E= -1196.37987613578     Delta-E=       -0.000000000202 Rises=F Damp=F
 DIIS: error= 7.84D-07 at cycle  11 NSaved=  11.
 NSaved=11 IEnMin=11 EnMin= -1196.37987613578     IErMin=11 ErrMin= 7.84D-07
 ErrMax= 7.84D-07  0.00D+00 EMaxC= 1.00D-01 BMatC= 1.44D-10 BMatP= 3.47D-10
 IDIUse=1 WtCom= 1.00D+00 WtEn= 0.00D+00
 Coeff-Com:  0.382D-05-0.617D-07-0.602D-04-0.251D-03-0.867D-03-0.152D-02
 Coeff-Com:  0.225D-02 0.157D-01 0.578D-01 0.442D+00 0.485D+00
 Coeff:      0.382D-05-0.617D-07-0.602D-04-0.251D-03-0.867D-03-0.152D-02
 Coeff:      0.225D-02 0.157D-01 0.578D-01 0.442D+00 0.485D+00
 Gap=     0.234 Goal=   None    Shift=    0.000
 RMSDP=5.19D-08 MaxDP=1.64D-06 DE=-2.02D-10 OVMax= 2.02D-06

 Cycle  12  Pass 1  IDiag  1:
 E= -1196.37987613589     Delta-E=       -0.000000000103 Rises=F Damp=F
 DIIS: error= 7.04D-08 at cycle  12 NSaved=  12.
 NSaved=12 IEnMin=12 EnMin= -1196.37987613589     IErMin=12 ErrMin= 7.04D-08
 ErrMax= 7.04D-08  0.00D+00 EMaxC= 1.00D-01 BMatC= 1.45D-12 BMatP= 1.44D-10
 IDIUse=1 WtCom= 1.00D+00 WtEn= 0.00D+00
 Coeff-Com:  0.388D-06 0.679D-06-0.740D-05-0.470D-04-0.196D-03-0.351D-03
 Coeff-Com: -0.351D-03-0.205D-02 0.517D-02 0.787D-01 0.124D+00 0.795D+00
 Coeff:      0.388D-06 0.679D-06-0.740D-05-0.470D-04-0.196D-03-0.351D-03
 Coeff:     -0.351D-03-0.205D-02 0.517D-02 0.787D-01 0.124D+00 0.795D+00
 Gap=     0.234 Goal=   None    Shift=    0.000
 RMSDP=1.17D-08 MaxDP=4.93D-07 DE=-1.03D-10 OVMax= 3.40D-07

 Cycle  13  Pass 1  IDiag  1:
 E= -1196.37987613587     Delta-E=        0.000000000012 Rises=F Damp=F
 DIIS: error= 1.35D-08 at cycle  13 NSaved=  13.
 NSaved=13 IEnMin=12 EnMin= -1196.37987613589     IErMin=13 ErrMin= 1.35D-08
 ErrMax= 1.35D-08  0.00D+00 EMaxC= 1.00D-01 BMatC= 5.48D-14 BMatP= 1.45D-12
 IDIUse=1 WtCom= 1.00D+00 WtEn= 0.00D+00
 Coeff-Com:  0.364D-07 0.660D-07 0.220D-06-0.121D-05-0.732D-05-0.211D-04
 Coeff-Com: -0.119D-03-0.930D-03-0.562D-03-0.942D-03 0.283D-02 0.182D+00
 Coeff-Com:  0.818D+00
 Coeff:      0.364D-07 0.660D-07 0.220D-06-0.121D-05-0.732D-05-0.211D-04
 Coeff:     -0.119D-03-0.930D-03-0.562D-03-0.942D-03 0.283D-02 0.182D+00
 Coeff:      0.818D+00
 Gap=     0.234 Goal=   None    Shift=    0.000
 RMSDP=2.12D-09 MaxDP=7.91D-08 DE= 1.18D-11 OVMax= 4.90D-08

 SCF Done:  E(RB3LYP) =  -1196.37987614     A.U. after   13 cycles
            NFock= 13  Conv=0.21D-08     -V/T= 2.0022
 KE= 1.193776478151D+03 PE=-3.551077286652D+03 EE= 8.060078773248D+02
 Leave Link  502 at Thu Jun 13 10:46:00 2024, MaxMem=  1073741824 cpu:        56.4
 (Enter /apps/z_install_tree/linux-rocky8-ivybridge/gcc-12.2.0/gaussian-09-D.01-wczn3gur5lpur3omlkzwa2l5ecyxp5ef/g09/l508.exe)
 QCSCF skips out because SCF is already converged.
 Leave Link  508 at Thu Jun 13 10:46:00 2024, MaxMem=  1073741824 cpu:         0.0
 (Enter /apps/z_install_tree/linux-rocky8-ivybridge/gcc-12.2.0/gaussian-09-D.01-wczn3gur5lpur3omlkzwa2l5ecyxp5ef/g09/l701.exe)
 Compute integral first derivatives.
 ... and contract with generalized density number  0.
 R6Disp: Adding Grimme-D3 dispersion energy 1st derivatives to the gradient.
 Leave Link  701 at Thu Jun 13 10:46:00 2024, MaxMem=  1073741824 cpu:         2.0
 (Enter /apps/z_install_tree/linux-rocky8-ivybridge/gcc-12.2.0/gaussian-09-D.01-wczn3gur5lpur3omlkzwa2l5ecyxp5ef/g09/l702.exe)
 L702 exits ... SP integral derivatives will be done elsewhere.
 Leave Link  702 at Thu Jun 13 10:46:00 2024, MaxMem=  1073741824 cpu:         0.3
 (Enter /apps/z_install_tree/linux-rocky8-ivybridge/gcc-12.2.0/gaussian-09-D.01-wczn3gur5lpur3omlkzwa2l5ecyxp5ef/g09/l703.exe)
 Compute integral first derivatives, UseDBF=F ICtDFT=           0.
 Integral derivatives from FoFJK, PRISM(SPDF).
 Calling FoFJK, ICntrl=      2127 FMM=F ISym2X=0 I1Cent= 0 IOpClX= 0 NMat=1 NMatS=1 NMatT=0.
 FoFJK:  IHMeth= 1 ICntrl=    2127 DoSepK=F KAlg= 0 I1Cent=   0 FoldK=F
 IRaf=         0 NMat=   1 IRICut=       1 DoRegI=T DoRafI=F ISym2E= 0.
 FoFCou: FMM=F IPFlag=           0 FMFlag=      100000 FMFlg1=         800
         NFxFlg=           0 DoJE=F BraDBF=F KetDBF=F FulRan=T
         wScrn=  0.000000 ICntrl=    2127 IOpCl=  0 I1Cent=           0 NGrid=           0
         NMat0=    1 NMatS0=      1 NMatT0=    0 NMatD0=    1 NMtDS0=    0 NMtDT0=    0
 Symmetry not used in FoFCou.
 Leave Link  703 at Thu Jun 13 10:46:01 2024, MaxMem=  1073741824 cpu:        16.4
 (Enter /apps/z_install_tree/linux-rocky8-ivybridge/gcc-12.2.0/gaussian-09-D.01-wczn3gur5lpur3omlkzwa2l5ecyxp5ef/g09/l716.exe)
 Dipole        =-7.70043620D-02-2.08444544D-02 1.92121907D-01
 -------------------------------------------------------------------
 Center     Atomic                   Forces (Hartrees/Bohr)
 Number     Number              X              Y              Z
 -------------------------------------------------------------------
      1        6           0.016533839   -0.010084490   -0.080898142
      2        6           0.001548749   -0.004655499   -0.017708180
      3        9          -0.012757508    0.026779172    0.114178031
      4       17          -0.008493373   -0.014123844   -0.011017249
      5        9           0.002007356    0.000027013   -0.006407327
      6       17           0.001160937    0.002057647    0.001852866
 -------------------------------------------------------------------
 Cartesian Forces:  Max     0.114178031 RMS     0.034657712
 Leave Link  716 at Thu Jun 13 10:46:01 2024, MaxMem=  1073741824 cpu:         0.4
 (Enter /apps/z_install_tree/linux-rocky8-ivybridge/gcc-12.2.0/gaussian-09-D.01-wczn3gur5lpur3omlkzwa2l5ecyxp5ef/g09/l103.exe)

 GradGradGradGradGradGradGradGradGradGradGradGradGradGradGradGradGradGrad
 Berny optimization.
 Using GEDIIS/GDIIS optimizer.
 FormGI is forming the generalized inverse of G from B-inverse, IUseBI=4.
 Internal  Forces:  Max     0.117819107 RMS     0.031780313
 Search for a local minimum.
 Step number   3 out of a maximum of   25
 All quantities printed in internal units (Hartrees-Bohrs-Radians)
 RMS Force = .31780D-01 SwitMx=.10000D-02 MixMth= 1
 Mixed Optimization -- RFO/linear search
 Update second derivatives using D2CorX and points    2    3
 DE= -1.59D-02 DEPred=-5.23D-02 R= 3.05D-01
 Trust test= 3.05D-01 RLast= 6.57D-01 DXMaxT set to 5.05D-01
 The second derivative matrix:
                          R1        R2        R3        R4        R5
           R1           0.60261
           R2           0.02134   0.31698
           R3           0.01763   0.02528   0.34364
           R4           0.00678   0.01146   0.00788   0.59656
           R5           0.00319   0.00419   0.00356   0.00140   0.34102
           A1           0.01654   0.02609   0.01860   0.00722   0.00335
           A2          -0.02696  -0.03226  -0.02992  -0.01179  -0.00545
           A3           0.01043   0.00616   0.01132   0.00458   0.00210
           A4           0.00277   0.00756   0.00329   0.00117   0.00057
           A5           0.00109  -0.00666   0.00074   0.00061   0.00020
           A6          -0.00386  -0.00090  -0.00404  -0.00178  -0.00077
           D1           0.00000   0.00000   0.00000   0.00000   0.00000
           D2           0.00000   0.00000   0.00000   0.00000   0.00000
           D3           0.00000   0.00000   0.00000   0.00000   0.00000
           D4           0.00000   0.00000   0.00000   0.00000   0.00000
                          A1        A2        A3        A4        A5
           A1           0.26747
           A2          -0.02811   0.29580
           A3           0.01064  -0.01769   0.25705
           A4           0.00305  -0.00477   0.00172   0.25055
           A5           0.00084  -0.00169   0.00084   0.00010   0.25013
[...]
     7                                        1 1                     8               6    5         44   3    2       1   1         
     4                                        9 6                     6               3    7         22   6    9       8   3         
     8                                        7 8                     4               6    1         42   7    0       1   1         
 
                                              X X                     X                              X    X            X   X         
                                              X                       X                                                              
                                              X                       X                                                              
                                              X                       X                                                              
                                              X                       X                                                              
                                              X                       X                                                              
                                              X                       X                                                              
                                              X                       X                                                              
                                              X                       X                                                              
                                              X                       X                                                              
                                              X                       X                                                              
                                              X                       X                                                              
                                              X                                                                                      
                                              X                                                                                      
                                              X                                                                                      
                                              X                                                                                      
                                              X                                                                                      
                                              X                                                                                      
                                              X                                                                                      
                                              X                                                                                      
 
 -------------------------------------------------------------------
 Center     Atomic                   Forces (Hartrees/Bohr)
 Number     Number              X              Y              Z
 -------------------------------------------------------------------
      1        6           0.000004817    0.000007939   -0.000050232
      2        6          -0.000135231   -0.000250341   -0.000297124
      3        9           0.000034512    0.000038620    0.000027080
      4       17           0.000022976    0.000019814   -0.000001014
      5        9          -0.000014989    0.000042329    0.000206244
      6       17           0.000087915    0.000141639    0.000115045
 -------------------------------------------------------------------
 Cartesian Forces:  Max     0.000297124 RMS     0.000120593
 Force constants in Cartesian coordinates: 
                1             2             3             4             5 
      1  0.375446D+00
      2  0.256922D+00  0.377369D+00
      3 -0.212982D+00 -0.561072D-01  0.628593D+00
      4 -0.233454D+00 -0.155709D+00  0.176767D+00  0.375674D+00
      5 -0.155734D+00 -0.180344D+00  0.141738D+00  0.257315D+00  0.377851D+00
      6  0.176767D+00  0.141707D+00 -0.232944D+00 -0.212642D+00 -0.561977D-01
      7 -0.524750D-01 -0.112820D-01  0.323123D-01  0.201435D-02  0.864049D-02
      8 -0.402700D-02 -0.625056D-01 -0.674140D-01 -0.789450D-03  0.613536D-02
      9  0.520619D-01 -0.439621D-01 -0.320894D+00 -0.165358D-02 -0.171023D-01
     10 -0.830503D-01 -0.763527D-01 -0.881326D-02 -0.848413D-02 -0.221984D-01
     11 -0.797575D-01 -0.122291D+00 -0.169469D-01 -0.166294D-01 -0.183545D-01
     12 -0.181037D-01 -0.279730D-01 -0.390990D-01  0.390841D-02  0.341685D-02
     13  0.200484D-02  0.862142D-02  0.239957D-01 -0.524736D-01 -0.113018D-01
     14 -0.796154D-03  0.611832D-02  0.133371D-01 -0.405313D-02 -0.625585D-01
     15 -0.167030D-02 -0.171085D-01 -0.390840D-01  0.517595D-01 -0.438305D-01
     16 -0.847151D-02 -0.221996D-01 -0.112797D-01 -0.832761D-01 -0.767210D-01
     17 -0.166069D-01 -0.183470D-01 -0.146068D-01 -0.801338D-01 -0.122730D+00
     18  0.392763D-02  0.344370D-02  0.342766D-02 -0.181399D-01 -0.280242D-01
                6             7             8             9            10 
      6  0.627492D+00
      7  0.240069D-01  0.473136D-01
      8  0.133682D-01  0.165223D-01  0.691756D-01
      9 -0.390262D-01 -0.457328D-01  0.825684D-01  0.391838D+00
     10 -0.112829D-01  0.213933D-02 -0.729062D-02 -0.136043D-01  0.919578D-01
     11 -0.146101D-01 -0.906246D-02 -0.161315D-01 -0.257228D-01  0.108500D+00
     12  0.340362D-02 -0.184279D-01 -0.314467D-01 -0.220182D-01  0.294085D-01
     13  0.320050D-01  0.347826D-02 -0.599827D-02  0.625726D-02 -0.248571D-02
     14 -0.672599D-01 -0.599262D-02  0.292685D-02 -0.116712D-02  0.156046D-02
     15 -0.319862D+00  0.627085D-02 -0.115236D-02 -0.129404D-01  0.267215D-02
     16 -0.885398D-02 -0.247059D-02  0.158304D-02  0.267156D-02 -0.770081D-04
     17 -0.170077D-01  0.117426D-02  0.399365D-03  0.538595D-02 -0.421884D-02
     18 -0.390637D-01  0.157075D-02  0.407643D-02  0.304054D-02  0.161991D-02
               11            12            13            14            15 
     11  0.157286D+00
     12  0.515238D-01  0.549041D-01
     13  0.116783D-02  0.159878D-02  0.473559D-01
     14  0.381597D-03  0.410469D-02  0.166045D-01  0.692960D-01
     15  0.537631D-02  0.303346D-02 -0.454114D-01  0.824448D-01  0.390837D+00
     16 -0.421846D-02  0.161593D-02  0.212032D-02 -0.732302D-02 -0.136207D-01
     17 -0.890771D-03  0.374328D-03 -0.909368D-02 -0.161643D-01 -0.257298D-01
     18  0.379637D-03 -0.223984D-03 -0.184453D-01 -0.314596D-01 -0.219843D-01
               16            17            18 
     16  0.921749D-01
     17  0.108879D+00  0.157733D+00
     18  0.294669D-01  0.515841D-01  0.548038D-01
 FormGI is forming the generalized inverse of G from B-inverse, IUseBI=4.
 Force constants in internal coordinates: 
                1             2             3             4             5 
      1  0.614872D+00
      2  0.260968D-01  0.415945D+00
      3  0.197168D-01  0.380414D-01  0.255254D+00
      4  0.261135D-01  0.132188D-01  0.689768D-02  0.414885D+00
      5  0.196970D-01  0.690794D-02  0.356728D-02  0.380561D-01  0.255961D+00
      6  0.215275D-01  0.355995D-01 -0.383179D-01  0.984367D-02 -0.403440D-02
      7  0.711904D-02 -0.463523D-01  0.212534D-01 -0.808224D-02  0.579421D-02
      8 -0.286465D-01  0.107527D-01  0.170645D-01 -0.176143D-02 -0.175981D-02
      9  0.217049D-01  0.983839D-02 -0.400442D-02  0.356230D-01 -0.382934D-01
     10  0.694304D-02 -0.808379D-02  0.577989D-02 -0.463910D-01  0.211829D-01
     11 -0.286479D-01 -0.175460D-02 -0.177547D-02  0.107680D-01  0.171105D-01
     12 -0.996622D-05 -0.726883D-05  0.000000D+00 -0.312380D-05 -0.465487D-05
     13 -0.189121D-05 -0.968269D-05 -0.466101D-05  0.804010D-05  0.923590D-05
     14  0.000000D+00  0.392333D-05  0.160439D-05 -0.519554D-05 -0.577665D-05
     15  0.767992D-05  0.150947D-05 -0.307457D-05  0.596836D-05  0.811412D-05
                6             7             8             9            10 
      6  0.148830D+00
      7 -0.662920D-01  0.132295D+00
      8 -0.825380D-01 -0.660030D-01  0.148541D+00
      9 -0.869244D-03  0.772451D-02 -0.685527D-02  0.148976D+00
     10  0.759268D-02 -0.323667D-02 -0.435601D-02 -0.662538D-01  0.132107D+00
     11 -0.672343D-02 -0.448785D-02  0.112113D-01 -0.827225D-01 -0.658528D-01
     12 -0.134259D-04  0.571658D-05  0.206809D-05 -0.487647D-05 -0.523998D-05
     13 -0.112093D-04  0.470701D-05  0.266026D-05  0.339688D-05  0.106608D-05
     14 -0.204589D-05  0.584328D-05  0.000000D+00  0.000000D+00 -0.396726D-05
     15  0.000000D+00  0.483371D-05  0.000000D+00  0.736878D-05  0.233881D-05
               11            12            13            14            15 
     11  0.148575D+00
     12  0.390989D-05  0.429226D-01
     13 -0.115717D-05  0.943919D-02  0.272734D-01
     14  0.000000D+00  0.945207D-02 -0.133563D-01  0.272893D-01
     15 -0.442304D-05 -0.240313D-01  0.447796D-02  0.448093D-02  0.329902D-01
 Leave Link  716 at Thu Jun 13 10:46:45 2024, MaxMem=  1073741824 cpu:         0.6
 (Enter /apps/z_install_tree/linux-rocky8-ivybridge/gcc-12.2.0/gaussian-09-D.01-wczn3gur5lpur3omlkzwa2l5ecyxp5ef/g09/l103.exe)

 GradGradGradGradGradGradGradGradGradGradGradGradGradGradGradGradGradGrad
 Berny optimization.
 Red2BG is reusing G-inverse.
 Internal  Forces:  Max     0.000210531 RMS     0.000091189
 Search for a local minimum.
 Step number   1 out of a maximum of    2
 All quantities printed in internal units (Hartrees-Bohrs-Radians)
 Second derivative matrix not updated -- analytic derivatives used.
 The second derivative matrix:
                          R1        R2        R3        R4        R5
           R1           0.61487
           R2           0.02610   0.41594
           R3           0.01972   0.03804   0.25525
           R4           0.02611   0.01322   0.00690   0.41489
           R5           0.01970   0.00691   0.00357   0.03806   0.25596
           A1           0.02153   0.03560  -0.03832   0.00984  -0.00403
           A2           0.00712  -0.04635   0.02125  -0.00808   0.00579
           A3          -0.02865   0.01075   0.01706  -0.00176  -0.00176
           A4           0.02170   0.00984  -0.00400   0.03562  -0.03829
           A5           0.00694  -0.00808   0.00578  -0.04639   0.02118
           A6          -0.02865  -0.00175  -0.00178   0.01077   0.01711
           D1          -0.00001  -0.00001   0.00000   0.00000   0.00000
           D2           0.00000  -0.00001   0.00000   0.00001   0.00001
           D3           0.00000   0.00000   0.00000  -0.00001  -0.00001
           D4           0.00001   0.00000   0.00000   0.00001   0.00001
                          A1        A2        A3        A4        A5
           A1           0.14883
           A2          -0.06629   0.13230
           A3          -0.08254  -0.06600   0.14854
           A4          -0.00087   0.00772  -0.00686   0.14898
           A5           0.00759  -0.00324  -0.00436  -0.06625   0.13211
           A6          -0.00672  -0.00449   0.01121  -0.08272  -0.06585
           D1          -0.00001   0.00001   0.00000   0.00000  -0.00001
           D2          -0.00001   0.00000   0.00000   0.00000   0.00000
           D3           0.00000   0.00001   0.00000   0.00000   0.00000
           D4           0.00000   0.00000   0.00000   0.00001   0.00000
                          A6        D1        D2        D3        D4
           A6           0.14858
           D1           0.00000   0.04292
           D2           0.00000   0.00944   0.02727
           D3           0.00000   0.00945  -0.01336   0.02729
           D4           0.00000  -0.02403   0.00448   0.00448   0.03299
 ITU=  0
     Eigenvalues ---    0.02646   0.04064   0.06338   0.14449   0.18101
     Eigenvalues ---    0.19647   0.22188   0.28222   0.29623   0.41708
     Eigenvalues ---    0.44477   0.63209
 Angle between quadratic step and forces=  21.55 degrees.
 Linear search not attempted -- first point.
 Iteration  1 RMS(Cart)=  0.00062145 RMS(Int)=  0.00000023
 Iteration  2 RMS(Cart)=  0.00000031 RMS(Int)=  0.00000001
 ITry= 1 IFail=0 DXMaxC= 1.42D-03 DCOld= 1.00D+10 DXMaxT= 3.00D-01 DXLimC= 3.00D+00 Rises=F
 Variable       Old X    -DE/DX   Delta X   Delta X   Delta X     New X
                                 (Linear)    (Quad)   (Total)
    R1        2.51092  -0.00009   0.00000  -0.00012  -0.00012   2.51080
    R2        2.51428   0.00003   0.00000   0.00010   0.00010   2.51438
    R3        3.24269  -0.00003   0.00000  -0.00013  -0.00013   3.24255
    R4        2.51513  -0.00021   0.00000  -0.00075  -0.00075   2.51438
    R5        3.24154   0.00019   0.00000   0.00101   0.00101   3.24255
    A1        2.11528  -0.00007   0.00000  -0.00024  -0.00024   2.11504
    A2        2.16665   0.00002   0.00000   0.00005   0.00005   2.16670
    A3        2.00125   0.00005   0.00000   0.00020   0.00020   2.00145
    A4        2.11443   0.00006   0.00000   0.00061   0.00061   2.11504
    A5        2.16762  -0.00013   0.00000  -0.00092  -0.00092   2.16670
    A6        2.00114   0.00007   0.00000   0.00031   0.00031   2.00145
    D1       -3.14133  -0.00002   0.00000  -0.00026  -0.00026  -3.14159
    D2        0.00003   0.00000   0.00000  -0.00004  -0.00004  -0.00001
    D3        0.00005   0.00000   0.00000  -0.00003  -0.00003   0.00001
    D4        3.14140   0.00001   0.00000   0.00019   0.00019  -3.14159
         Item               Value     Threshold  Converged?
 Maximum Force            0.000211     0.000450     YES
 RMS     Force            0.000091     0.000300     YES
 Maximum Displacement     0.001418     0.001800     YES
 RMS     Displacement     0.000622     0.001200     YES
 Predicted change in Energy=-2.910329D-07
 Optimization completed.
    -- Stationary point found.
                           ----------------------------
                           !   Optimized Parameters   !
                           ! (Angstroms and Degrees)  !
 --------------------------                            --------------------------
 ! Name  Definition              Value          Derivative Info.                !
 --------------------------------------------------------------------------------
 ! R1    R(1,2)                  1.3287         -DE/DX =   -0.0001              !
 ! R2    R(1,3)                  1.3305         -DE/DX =    0.0                 !
 ! R3    R(1,4)                  1.716          -DE/DX =    0.0                 !
 ! R4    R(2,5)                  1.3309         -DE/DX =   -0.0002              !
 ! R5    R(2,6)                  1.7153         -DE/DX =    0.0002              !
 ! A1    A(2,1,3)              121.1966         -DE/DX =   -0.0001              !
 ! A2    A(2,1,4)              124.1402         -DE/DX =    0.0                 !
 ! A3    A(3,1,4)              114.6632         -DE/DX =    0.0001              !
 ! A4    A(1,2,5)              121.1478         -DE/DX =    0.0001              !
 ! A5    A(1,2,6)              124.1953         -DE/DX =   -0.0001              !
 ! A6    A(5,2,6)              114.6568         -DE/DX =    0.0001              !
 ! D1    D(3,1,2,5)           -179.9848         -DE/DX =    0.0                 !
 ! D2    D(3,1,2,6)              0.0015         -DE/DX =    0.0                 !
 ! D3    D(4,1,2,5)              0.0028         -DE/DX =    0.0                 !
 ! D4    D(4,1,2,6)           -180.0109         -DE/DX =    0.0                 !
 --------------------------------------------------------------------------------
 GradGradGradGradGradGradGradGradGradGradGradGradGradGradGradGradGradGrad

 Leave Link  103 at Thu Jun 13 10:46:45 2024, MaxMem=  1073741824 cpu:         0.9
 (Enter /apps/z_install_tree/linux-rocky8-ivybridge/gcc-12.2.0/gaussian-09-D.01-wczn3gur5lpur3omlkzwa2l5ecyxp5ef/g09/l9999.exe)
 1\1\GINC-K247\Freq\RB3LYP\Gen\C2Cl2F2\Z5112331\13-Jun-2024\0\\#P Geom=
 AllCheck Guess=TCheck SCRF=Check GenChk RB3LYP/ChkBas Freq\\difluorodi
 chloroethene\\0,1\C,49.8304630912,35.7141427325,32.6400391358\C,50.645
 1651562,36.3844972797,31.8323363951\F,49.7094091075,36.0420478346,33.9
 238056067\Cl,48.8635042663,34.3853978304,32.1461461552\F,50.765285487,
 36.0558337225,30.5482136833\Cl,51.6121738918,37.7130806003,32.32445802
 39\\Version=ES64L-G09RevD.01\HF=-1196.3912548\RMSD=4.212e-09\RMSF=1.20
 6e-04\ZeroPoint=0.0182228\Thermal=0.0240912\Dipole=0.0006597,0.0011373
 ,0.0010688\DipoleDeriv=0.4288009,0.4576007,-0.0162193,0.4079292,0.6480
 067,0.3426135,-0.1507654,0.1827551,1.0229396,0.4282712,0.457534,-0.015
 5942,0.4082702,0.6483072,0.3421919,-0.1504975,0.1822858,1.0213031,-0.2
 002304,-0.1224916,0.0720607,-0.0611811,-0.2371461,-0.2445899,0.2388056
 ,-0.046541,-0.9732805,-0.2283484,-0.3350034,-0.0559433,-0.346663,-0.41
 0792,-0.0980072,-0.0880752,-0.1361356,-0.0494629,-0.2002394,-0.1223859
 ,0.0714385,-0.0612902,-0.2375416,-0.2444812,0.23817,-0.0467638,-0.9724
 387,-0.2282539,-0.3352538,-0.0557423,-0.3470652,-0.4108342,-0.097727,-
 0.0876375,-0.1356004,-0.0490605\Polar=53.4001433,22.3774958,60.6287787
 ,-2.8266967,1.0895047,45.7743189\PG=C01 [X(C2Cl2F2)]\NImag=0\\0.375446
 24,0.25692195,0.37736873,-0.21298213,-0.05610722,0.62859291,-0.2334543
 2,-0.15570918,0.17676715,0.37567385,-0.15573431,-0.18034369,0.14173791
 ,0.25731498,0.37785110,0.17676656,0.14170714,-0.23294390,-0.21264151,-
 0.05619767,0.62749239,-0.05247498,-0.01128197,0.03231225,0.00201435,0.
 00864049,0.02400688,0.04731362,-0.00402700,-0.06250564,-0.06741404,-0.
 00078945,0.00613536,0.01336825,0.01652231,0.06917559,0.05206193,-0.043
 96212,-0.32089361,-0.00165358,-0.01710234,-0.03902622,-0.04573285,0.08
 256840,0.39183788,-0.08305026,-0.07635267,-0.00881326,-0.00848413,-0.0
 2219840,-0.01128294,0.00213933,-0.00729062,-0.01360432,0.09195777,-0.0
 7975754,-0.12229071,-0.01694688,-0.01662945,-0.01835446,-0.01461012,-0
 .00906246,-0.01613153,-0.02572278,0.10850008,0.15728587,-0.01810368,-0
 .02797302,-0.03909902,0.00390841,0.00341685,0.00340362,-0.01842789,-0.
 03144668,-0.02201819,0.02940845,0.05152383,0.05490411,0.00200484,0.008
 62142,0.02399570,-0.05247362,-0.01130176,0.03200499,0.00347826,-0.0059
 9827,0.00625726,-0.00248571,0.00116783,0.00159878,0.04735592,-0.000796
 15,0.00611832,0.01333707,-0.00405313,-0.06255848,-0.06725989,-0.005992
 62,0.00292685,-0.00116712,0.00156046,0.00038160,0.00410469,0.01660447,
 0.06929597,-0.00167030,-0.01710848,-0.03908404,0.05175945,-0.04383050,
 -0.31986218,0.00627085,-0.00115236,-0.01294038,0.00267215,0.00537631,0
 .00303346,-0.04541144,0.08244482,0.39083744,-0.00847151,-0.02219955,-0
 .01127973,-0.08327613,-0.07672099,-0.00885398,-0.00247059,0.00158304,0
 .00267156,-0.00007701,-0.00421846,0.00161593,0.00212032,-0.00732302,-0
 .01362071,0.09217492,-0.01660695,-0.01834702,-0.01460684,-0.08013378,-
 0.12272982,-0.01700771,0.00117426,0.00039937,0.00538595,-0.00421884,-0
 .00089077,0.00037433,-0.00909368,-0.01616426,-0.02572979,0.10887899,0.
 15773251,0.00392763,0.00344370,0.00342766,-0.01813993,-0.02802424,-0.0
 3906372,0.00157075,0.00407643,0.00304054,0.00161991,0.00037964,-0.0002
 2398,-0.01844529,-0.03145958,-0.02198429,0.02946693,0.05158405,0.05480
 380\\-0.00000482,-0.00000794,0.00005023,0.00013523,0.00025034,0.000297
 12,-0.00003451,-0.00003862,-0.00002708,-0.00002298,-0.00001981,0.00000
 101,0.00001499,-0.00004233,-0.00020624,-0.00008791,-0.00014164,-0.0001
 1505\\\@


 DEFINE YOUR TERMS, YOU WILL PERMIT ME AGAIN TO SAY, 
 OR WE SHALL NEVER UNDERSTAND ONE ANOTHER.

                                    -- VOLTAIRE
 Job cpu time:       0 days  0 hours  6 minutes 48.9 seconds.
 File lengths (MBytes):  RWF=    132 Int=      0 D2E=      0 Chk=      4 Scr=      2
 Normal termination of Gaussian 09 at Thu Jun 13 10:46:45 2024.
