 Entering Gaussian System, Link 0=g16
 Initial command:
 /apps/gaussian/g16c01/g16/l1.exe "/jobfs/145007129.gadi-pbs/Gau-2970256.inp" -scrdir="/jobfs/145007129.gadi-pbs/"
 Entering Link 1 = /apps/gaussian/g16c01/g16/l1.exe PID=   2970262.
  
 Copyright (c) 1988-2019, Gaussian, Inc.  All Rights Reserved.
  
 This is part of the Gaussian(R) 16 program.  It is based on
 the Gaussian(R) 09 system (copyright 2009, Gaussian, Inc.),
 the Gaussian(R) 03 system (copyright 2003, Gaussian, Inc.),
 the Gaussian(R) 98 system (copyright 1998, Gaussian, Inc.),
 the Gaussian(R) 94 system (copyright 1995, Gaussian, Inc.),
 the Gaussian 92(TM) system (copyright 1992, Gaussian, Inc.),
 the Gaussian 90(TM) system (copyright 1990, Gaussian, Inc.),
 the Gaussian 88(TM) system (copyright 1988, Gaussian, Inc.),
 the Gaussian 86(TM) system (copyright 1986, Carnegie Mellon
 University), and the Gaussian 82(TM) system (copyright 1983,
 Carnegie Mellon University). Gaussian is a federally registered
 trademark of Gaussian, Inc.
  
 This software contains proprietary and confidential information,
 including trade secrets, belonging to Gaussian, Inc.
  
 This software is provided under written license and may be
 used, copied, transmitted, or stored only in accord with that
 written license.
  
 The following legend is applicable only to US Government
 contracts under FAR:
  
                    RESTRICTED RIGHTS LEGEND
  
 Use, reproduction and disclosure by the US Government is
 subject to restrictions as set forth in subparagraphs (a)
 and (c) of the Commercial Computer Software - Restricted
 Rights clause in FAR 52.227-19.
  
 Gaussian, Inc.
 340 Quinnipiac St., Bldg. 40, Wallingford CT 06492
  
  
 ---------------------------------------------------------------
 Warning -- This program may not be used in any manner that
 competes with the business of Gaussian, Inc. or will provide
 assistance to any competitor of Gaussian, Inc.  The licensee
 of this program is prohibited from giving any competitor of
 Gaussian, Inc. access to this program.  By using this program,
 the user acknowledges that Gaussian, Inc. is engaged in the
 business of creating and licensing software in the field of
 computational chemistry and represents and warrants to the
 licensee that it is not a competitor of Gaussian, Inc. and that
 it will not use this program in any manner prohibited above.
 ---------------------------------------------------------------
  

 Cite this work as:
 Gaussian 16, Revision C.01,
 M. J. Frisch, G. W. Trucks, H. B. Schlegel, G. E. Scuseria, 
 M. A. Robb, J. R. Cheeseman, G. Scalmani, V. Barone, 
 G. A. Petersson, H. Nakatsuji, X. Li, M. Caricato, A. V. Marenich, 
 J. Bloino, B. G. Janesko, R. Gomperts, B. Mennucci, H. P. Hratchian, 
 J. V. Ortiz, A. F. Izmaylov, J. L. Sonnenberg, D. Williams-Young, 
 F. Ding, F. Lipparini, F. Egidi, J. Goings, B. Peng, A. Petrone, 
 T. Henderson, D. Ranasinghe, V. G. Zakrzewski, J. Gao, N. Rega, 
 G. Zheng, W. Liang, M. Hada, M. Ehara, K. Toyota, R. Fukuda, 
 J. Hasegawa, M. Ishida, T. Nakajima, Y. Honda, O. Kitao, H. Nakai, 
 T. Vreven, K. Throssell, J. A. Montgomery, Jr., J. E. Peralta, 
 F. Ogliaro, M. J. Bearpark, J. J. Heyd, E. N. Brothers, K. N. Kudin, 
 V. N. Staroverov, T. A. Keith, R. Kobayashi, J. Normand, 
 K. Raghavachari, A. P. Rendell, J. C. Burant, S. S. Iyengar, 
 J. Tomasi, M. Cossi, J. M. Millam, M. Klene, C. Adamo, R. Cammi, 
 J. W. Ochterski, R. L. Martin, K. Morokuma, O. Farkas, 
 J. B. Foresman, and D. J. Fox, Gaussian, Inc., Wallingford CT, 2019.
 
 ******************************************
 Gaussian 16:  ES64L-G16RevC.01  3-Jul-2019
                10-Jul-2025 
 ******************************************
 %chk=H2F2_oct_M05-2x.chk
 %mem=20GB
 %nprocshared=20
 Will use up to   20 processors via shared memory.
 -------------------------------------------
 #P M052X/6-31G* scrf(SMD,solvent=n-octanol)
 -------------------------------------------
 1/38=1,172=1/1;
 2/12=2,17=6,18=5,40=1/2;
 3/5=1,6=6,7=1,11=2,25=1,30=1,70=32201,72=25,74=-38/1,2,3;
 4//1;
 5/5=2,38=5,53=25/2;
 6/7=2,8=2,9=2,10=2,28=1/1;
 99/5=1,9=1/99;
 Leave Link    1 at Thu Jul 10 14:17:49 2025, MaxMem=  2684354560 cpu:               1.3 elap:               0.1
 (Enter /apps/gaussian/g16c01/g16/l101.exe)
 ---------------
 H2F2_oct_M05-2x
 ---------------
 Symbolic Z-matrix:
 Charge =  0 Multiplicity = 1
 C                    -0.66064   0.58712   0.00002 
 C                     0.66064   0.58712   0.00002 
 H                    -1.25892   1.48814   0.00002 
 F                    -1.37894  -0.55676  -0.00002 
 F                     1.37894  -0.55676  -0.00001 
 H                     1.25892   1.48814   0.00003 
 
 ITRead=  0  0  0  0  0  0
 MicOpt= -1 -1 -1 -1 -1 -1
 NAtoms=      6 NQM=        6 NQMF=       0 NMMI=      0 NMMIF=      0
                NMic=       0 NMicF=      0.
                    Isotopes and Nuclear Properties:
 (Nuclear quadrupole moments (NQMom) in fm**2, nuclear magnetic moments (NMagM)
  in nuclear magnetons)

  Atom         1           2           3           4           5           6
 IAtWgt=          12          12           1          19          19           1
 AtmWgt=  12.0000000  12.0000000   1.0078250  18.9984033  18.9984033   1.0078250
 NucSpn=           0           0           1           1           1           1
 AtZEff=  -0.0000000  -0.0000000  -0.0000000  -0.0000000  -0.0000000  -0.0000000
 NQMom=    0.0000000   0.0000000   0.0000000   0.0000000   0.0000000   0.0000000
 NMagM=    0.0000000   0.0000000   2.7928460   2.6288670   2.6288670   2.7928460
 AtZNuc=   6.0000000   6.0000000   1.0000000   9.0000000   9.0000000   1.0000000
 Leave Link  101 at Thu Jul 10 14:17:50 2025, MaxMem=  2684354560 cpu:               3.9 elap:               0.2
 (Enter /apps/gaussian/g16c01/g16/l202.exe)
                          Input orientation:                          
 ---------------------------------------------------------------------
 Center     Atomic      Atomic             Coordinates (Angstroms)
 Number     Number       Type             X           Y           Z
 ---------------------------------------------------------------------
      1          6           0       -0.660635    0.587117    0.000015
      2          6           0        0.660635    0.587117    0.000022
      3          1           0       -1.258924    1.488140    0.000015
      4          9           0       -1.378937   -0.556760   -0.000023
      5          9           0        1.378937   -0.556760   -0.000007
      6          1           0        1.258924    1.488140    0.000029
 ---------------------------------------------------------------------
                    Distance matrix (angstroms):
                    1          2          3          4          5
     1  C    0.000000
     2  C    1.321270   0.000000
     3  H    1.081569   2.120507   0.000000
     4  F    1.350708   2.338441   2.048419   0.000000
     5  F    2.338441   1.350708   3.337653   2.757874   0.000000
     6  H    2.120507   1.081569   2.517848   3.337653   2.048419
                    6
     6  H    0.000000
 Stoichiometry    C2H2F2
 Framework group  C1[X(C2H2F2)]
 Deg. of freedom    12
 Full point group                 C1      NOp   1
 Largest Abelian subgroup         C1      NOp   1
 Largest concise Abelian subgroup C1      NOp   1
                         Standard orientation:                         
 ---------------------------------------------------------------------
 Center     Atomic      Atomic             Coordinates (Angstroms)
 Number     Number       Type             X           Y           Z
 ---------------------------------------------------------------------
      1          6           0       -0.660635    0.587117    0.000015
      2          6           0        0.660635    0.587117    0.000022
      3          1           0       -1.258924    1.488140    0.000015
      4          9           0       -1.378937   -0.556760   -0.000023
      5          9           0        1.378937   -0.556760   -0.000007
      6          1           0        1.258924    1.488140    0.000029
 ---------------------------------------------------------------------
 Rotational constants (GHZ):          20.8344081           5.8820544           4.5870265
 Leave Link  202 at Thu Jul 10 14:17:50 2025, MaxMem=  2684354560 cpu:               0.7 elap:               0.0
 (Enter /apps/gaussian/g16c01/g16/l301.exe)
 Standard basis: 6-31G(d) (6D, 7F)
 Ernie: Thresh=  0.10000D-02 Tol=  0.10000D-05 Strict=F.
 There are    64 symmetry adapted cartesian basis functions of A   symmetry.
 There are    64 symmetry adapted basis functions of A   symmetry.
    64 basis functions,   120 primitive gaussians,    64 cartesian basis functions
    16 alpha electrons       16 beta electrons
       nuclear repulsion energy       113.2921238469 Hartrees.
 IExCor= 3428 DFT=T Ex+Corr=M052X ExCW=0 ScaHFX=  0.560000
 ScaDFX=  0.440000  0.440000  1.000000  1.000000 ScalE2=  1.000000  1.000000
 IRadAn=      5 IRanWt=     -1 IRanGd=            0 ICorTp=0 IEmpDi=  4
 NAtoms=    6 NActive=    6 NUniq=    6 SFac= 1.00D+00 NAtFMM=   60 NAOKFM=F Big=F
 Integral buffers will be    131072 words long.
 Raffenetti 2 integral format.
 Two-electron integral symmetry is turned on.
 ------------------------------------------------------------------------------
 Polarizable Continuum Model (PCM)
 =================================
 Model                : PCM.
 Atomic radii         : SMD-Coulomb.
 Polarization charges : Total charges.
 Charge compensation  : None.
 Solution method      : On-the-fly selection.
 Cavity type          : VdW (van der Waals Surface) (Alpha=1.000).
 Cavity algorithm     : GePol (No added spheres)
                        Default sphere list used, NSphG=    6.
                        Lebedev-Laikov grids with approx.  5.0 points / Ang**2.
                        Smoothing algorithm: York/Karplus (Gamma=1.0000).
                        Polarization charges: spherical gaussians, with
                                              point-specific exponents (IZeta= 3).
                        Self-potential: point-specific (ISelfS= 7).
                        Self-field    : sphere-specific E.n sum rule (ISelfD= 2).
 Solvent              : n-Octanol, Eps=   9.862900 Eps(inf)=   2.043470
 ------------------------------------------------------------------------------
 Spheres list:
 ISph  on   Nord     Re0    Alpha      Xe            Ye            Ze
    1   C      1    1.8500  1.000     -0.660635      0.587117      0.000015
    2   C      2    1.8500  1.000      0.660635      0.587117      0.000022
    3   H      3    1.2000  1.000     -1.258924      1.488140      0.000015
    4   F      4    1.7300  1.000     -1.378937     -0.556760     -0.000023
    5   F      5    1.7300  1.000      1.378937     -0.556760     -0.000007
    6   H      6    1.2000  1.000      1.258924      1.488140      0.000029
 ------------------------------------------------------------------------------
 GePol: Number of generator spheres                  =       6
 GePol: Total number of spheres                      =       6
 GePol: Number of exposed spheres                    =       6 (100.00%)
 GePol: Number of points                             =     620
 GePol: Average weight of points                     =       0.14
 GePol: Minimum weight of points                     =   0.48D-07
 GePol: Maximum weight of points                     =    0.21501
 GePol: Number of points with low weight             =      18
 GePol: Fraction of low-weight points (<1% of avg)   =       2.90%
 GePol: Cavity surface area                          =     84.749 Ang**2
 GePol: Cavity volume                                =     63.073 Ang**3
 ------------------------------------------------------------------------------
 Atomic radii for non-electrostatic terms: SMD-CDS.
 ------------------------------------------------------------------------------
 PCM non-electrostatic energy =         0.0032105388 Hartrees.
 Nuclear repulsion after PCM non-electrostatic terms =      113.2953343857 Hartrees.
 Leave Link  301 at Thu Jul 10 14:17:50 2025, MaxMem=  2684354560 cpu:               2.8 elap:               0.2
 (Enter /apps/gaussian/g16c01/g16/l302.exe)
 NPDir=0 NMtPBC=     1 NCelOv=     1 NCel=       1 NClECP=     1 NCelD=      1
         NCelK=      1 NCelE2=     1 NClLst=     1 CellRange=     0.0.
 One-electron integrals computed using PRISM.
 One-electron integral symmetry used in STVInt
 NBasis=    64 RedAO= T EigKep=  3.01D-03  NBF=    64
 NBsUse=    64 1.00D-06 EigRej= -1.00D+00 NBFU=    64
 Precomputing XC quadrature grid using
 IXCGrd= 4 IRadAn=           5 IRanWt=          -1 IRanGd=           0 AccXCQ= 0.00D+00.
 Generated NRdTot=       0 NPtTot=           0 NUsed=           0 NTot=          32
 NSgBfM=    64    64    64    64    64 MxSgAt=     6 MxSgA2=     6.
 Leave Link  302 at Thu Jul 10 14:17:50 2025, MaxMem=  2684354560 cpu:               2.6 elap:               0.2
 (Enter /apps/gaussian/g16c01/g16/l303.exe)
 DipDrv:  MaxL=1.
 Leave Link  303 at Thu Jul 10 14:17:50 2025, MaxMem=  2684354560 cpu:               1.3 elap:               0.1
 (Enter /apps/gaussian/g16c01/g16/l401.exe)
 ExpMin= 1.61D-01 ExpMax= 7.00D+03 ExpMxC= 1.05D+03 IAcc=3 IRadAn=         5 AccDes= 0.00D+00
 Harris functional with IExCor= 1009 and IRadAn=       5 diagonalized for initial guess.
 HarFok:  IExCor= 1009 AccDes= 0.00D+00 IRadAn=         5 IDoV= 1 UseB2=F ITyADJ=14
 ICtDFT=  3500011 ScaDFX=  1.000000  1.000000  1.000000  1.000000
 FoFCou: FMM=F IPFlag=           0 FMFlag=      100000 FMFlg1=           0
         NFxFlg=           0 DoJE=T BraDBF=F KetDBF=T FulRan=T
         wScrn=  0.000000 ICntrl=       500 IOpCl=  0 I1Cent=   200000004 NGrid=           0
         NMat0=    1 NMatS0=      1 NMatT0=    0 NMatD0=    1 NMtDS0=    0 NMtDT0=    0
 Petite list used in FoFCou.
 Harris En= -276.771671902075    
 JPrj=0 DoOrth=F DoCkMO=F.
 Leave Link  401 at Thu Jul 10 14:17:50 2025, MaxMem=  2684354560 cpu:               3.5 elap:               0.2
 (Enter /apps/gaussian/g16c01/g16/l502.exe)
 Keep R1 ints in memory in canonical form, NReq=19962716.
 FoFCou: FMM=F IPFlag=           0 FMFlag=           0 FMFlg1=           0
         NFxFlg=           0 DoJE=F BraDBF=F KetDBF=F FulRan=T
         wScrn=  0.000000 ICntrl=       600 IOpCl=  0 I1Cent=           0 NGrid=           0
         NMat0=    1 NMatS0=   2080 NMatT0=    0 NMatD0=    1 NMtDS0=    0 NMtDT0=    0
 Symmetry not used in FoFCou.
 Two-electron integral symmetry not used.
 Closed shell SCF:
 Using DIIS extrapolation, IDIIS=  1040.
 NGot=  2684354560 LenX=  2682179902 LenY=  2682175365
 Requested convergence on RMS density matrix=1.00D-08 within 128 cycles.
 Requested convergence on MAX density matrix=1.00D-06.
 Requested convergence on             energy=1.00D-06.
 No special actions if energy rises.

 Cycle   1  Pass 1  IDiag  1:
 Inv3:  Mode=1 IEnd=     1153200.
 Iteration    1 A*A^-1 deviation from unit magnitude is 3.11D-15 for    324.
 Iteration    1 A*A^-1 deviation from orthogonality  is 2.30D-15 for    559    124.
 Iteration    1 A^-1*A deviation from unit magnitude is 2.44D-15 for    418.
 Iteration    1 A^-1*A deviation from orthogonality  is 2.06D-14 for    385    356.
 E= -276.977316534856    
 DIIS: error= 2.29D-02 at cycle   1 NSaved=   1.
 NSaved= 1 IEnMin= 1 EnMin= -276.977316534856     IErMin= 1 ErrMin= 2.29D-02
 ErrMax= 2.29D-02  0.00D+00 EMaxC= 1.00D-01 BMatC= 4.76D-02 BMatP= 4.76D-02
 IDIUse=3 WtCom= 7.71D-01 WtEn= 2.29D-01
 Coeff-Com:  0.100D+01
 Coeff-En:   0.100D+01
 Coeff:      0.100D+01
 Gap=     0.402 Goal=   None    Shift=    0.000
 GapD=    0.402 DampG=2.000 DampE=0.500 DampFc=1.0000 IDamp=-1.
 RMSDP=3.77D-03 MaxDP=4.59D-02              OVMax= 6.52D-02

 Cycle   2  Pass 1  IDiag  1:
 E= -277.004565391421     Delta-E=       -0.027248856565 Rises=F Damp=F
 DIIS: error= 1.09D-02 at cycle   2 NSaved=   2.
 NSaved= 2 IEnMin= 2 EnMin= -277.004565391421     IErMin= 2 ErrMin= 1.09D-02
 ErrMax= 1.09D-02  0.00D+00 EMaxC= 1.00D-01 BMatC= 8.49D-03 BMatP= 4.76D-02
 IDIUse=3 WtCom= 8.91D-01 WtEn= 1.09D-01
 Coeff-Com:  0.267D+00 0.733D+00
 Coeff-En:   0.000D+00 0.100D+01
 Coeff:      0.238D+00 0.762D+00
 Gap=     0.397 Goal=   None    Shift=    0.000
 RMSDP=1.39D-03 MaxDP=1.82D-02 DE=-2.72D-02 OVMax= 2.19D-02

 Cycle   3  Pass 1  IDiag  1:
 E= -277.011454865550     Delta-E=       -0.006889474128 Rises=F Damp=F
 DIIS: error= 2.39D-03 at cycle   3 NSaved=   3.
 NSaved= 3 IEnMin= 3 EnMin= -277.011454865550     IErMin= 3 ErrMin= 2.39D-03
 ErrMax= 2.39D-03  0.00D+00 EMaxC= 1.00D-01 BMatC= 3.21D-04 BMatP= 8.49D-03
 IDIUse=3 WtCom= 9.76D-01 WtEn= 2.39D-02
 Coeff-Com:  0.915D-02 0.165D+00 0.826D+00
 Coeff-En:   0.000D+00 0.000D+00 0.100D+01
 Coeff:      0.893D-02 0.161D+00 0.830D+00
 Gap=     0.395 Goal=   None    Shift=    0.000
 RMSDP=2.43D-04 MaxDP=3.08D-03 DE=-6.89D-03 OVMax= 4.35D-03

 Cycle   4  Pass 1  IDiag  1:
 E= -277.011736209419     Delta-E=       -0.000281343869 Rises=F Damp=F
 DIIS: error= 2.16D-04 at cycle   4 NSaved=   4.
 NSaved= 4 IEnMin= 4 EnMin= -277.011736209419     IErMin= 4 ErrMin= 2.16D-04
 ErrMax= 2.16D-04  0.00D+00 EMaxC= 1.00D-01 BMatC= 3.79D-06 BMatP= 3.21D-04
 IDIUse=3 WtCom= 9.98D-01 WtEn= 2.16D-03
 Coeff-Com: -0.317D-02 0.130D-01 0.143D+00 0.848D+00
 Coeff-En:   0.000D+00 0.000D+00 0.000D+00 0.100D+01
 Coeff:     -0.316D-02 0.130D-01 0.142D+00 0.848D+00
 Gap=     0.396 Goal=   None    Shift=    0.000
 RMSDP=2.71D-05 MaxDP=2.43D-04 DE=-2.81D-04 OVMax= 4.56D-04

 Cycle   5  Pass 1  IDiag  1:
 E= -277.011739730803     Delta-E=       -0.000003521385 Rises=F Damp=F
 DIIS: error= 4.20D-05 at cycle   5 NSaved=   5.
 NSaved= 5 IEnMin= 5 EnMin= -277.011739730803     IErMin= 5 ErrMin= 4.20D-05
 ErrMax= 4.20D-05  0.00D+00 EMaxC= 1.00D-01 BMatC= 4.86D-08 BMatP= 3.79D-06
 IDIUse=1 WtCom= 1.00D+00 WtEn= 0.00D+00
 Coeff-Com:  0.105D-03-0.568D-02-0.395D-01-0.105D+00 0.115D+01
 Coeff:      0.105D-03-0.568D-02-0.395D-01-0.105D+00 0.115D+01
 Gap=     0.396 Goal=   None    Shift=    0.000
 RMSDP=9.57D-06 MaxDP=1.20D-04 DE=-3.52D-06 OVMax= 2.06D-04

 Cycle   6  Pass 1  IDiag  1:
 E= -277.011739846871     Delta-E=       -0.000000116067 Rises=F Damp=F
 DIIS: error= 3.50D-06 at cycle   6 NSaved=   6.
 NSaved= 6 IEnMin= 6 EnMin= -277.011739846871     IErMin= 6 ErrMin= 3.50D-06
 ErrMax= 3.50D-06  0.00D+00 EMaxC= 1.00D-01 BMatC= 7.17D-10 BMatP= 4.86D-08
 IDIUse=1 WtCom= 1.00D+00 WtEn= 0.00D+00
 Coeff-Com:  0.222D-04 0.998D-05-0.890D-03-0.670D-02-0.298D-01 0.104D+01
 Coeff:      0.222D-04 0.998D-05-0.890D-03-0.670D-02-0.298D-01 0.104D+01
 Gap=     0.396 Goal=   None    Shift=    0.000
 RMSDP=1.17D-06 MaxDP=1.69D-05 DE=-1.16D-07 OVMax= 1.15D-05

 Cycle   7  Pass 1  IDiag  1:
 E= -277.011739847591     Delta-E=       -0.000000000720 Rises=F Damp=F
 DIIS: error= 2.40D-06 at cycle   7 NSaved=   7.
 NSaved= 7 IEnMin= 7 EnMin= -277.011739847591     IErMin= 7 ErrMin= 2.40D-06
 ErrMax= 2.40D-06  0.00D+00 EMaxC= 1.00D-01 BMatC= 4.66D-10 BMatP= 7.17D-10
 IDIUse=1 WtCom= 1.00D+00 WtEn= 0.00D+00
 Coeff-Com:  0.628D-05 0.303D-03 0.171D-02 0.332D-02-0.654D-01 0.518D+00
 Coeff-Com:  0.542D+00
 Coeff:      0.628D-05 0.303D-03 0.171D-02 0.332D-02-0.654D-01 0.518D+00
 Coeff:      0.542D+00
 Gap=     0.396 Goal=   None    Shift=    0.000
 RMSDP=1.98D-07 MaxDP=3.05D-06 DE=-7.20D-10 OVMax= 4.71D-06

 Cycle   8  Pass 1  IDiag  1:
 E= -277.011739847891     Delta-E=       -0.000000000301 Rises=F Damp=F
 DIIS: error= 3.10D-07 at cycle   8 NSaved=   8.
 NSaved= 8 IEnMin= 8 EnMin= -277.011739847891     IErMin= 8 ErrMin= 3.10D-07
 ErrMax= 3.10D-07  0.00D+00 EMaxC= 1.00D-01 BMatC= 6.28D-12 BMatP= 4.66D-10
 IDIUse=1 WtCom= 1.00D+00 WtEn= 0.00D+00
 Coeff-Com: -0.179D-05 0.469D-04 0.349D-03 0.114D-02-0.914D-02-0.385D-01
 Coeff-Com:  0.614D-01 0.985D+00
 Coeff:     -0.179D-05 0.469D-04 0.349D-03 0.114D-02-0.914D-02-0.385D-01
 Coeff:      0.614D-01 0.985D+00
 Gap=     0.396 Goal=   None    Shift=    0.000
 RMSDP=7.63D-08 MaxDP=9.90D-07 DE=-3.01D-10 OVMax= 9.29D-07

 Cycle   9  Pass 1  IDiag  1:
 E= -277.011739847900     Delta-E=       -0.000000000009 Rises=F Damp=F
 DIIS: error= 4.29D-08 at cycle   9 NSaved=   9.
 NSaved= 9 IEnMin= 9 EnMin= -277.011739847900     IErMin= 9 ErrMin= 4.29D-08
 ErrMax= 4.29D-08  0.00D+00 EMaxC= 1.00D-01 BMatC= 7.57D-14 BMatP= 6.28D-12
 IDIUse=1 WtCom= 1.00D+00 WtEn= 0.00D+00
 Coeff-Com: -0.120D-06-0.545D-05-0.280D-04-0.460D-04 0.127D-02-0.116D-01
 Coeff-Com: -0.141D-01 0.285D-01 0.996D+00
 Coeff:     -0.120D-06-0.545D-05-0.280D-04-0.460D-04 0.127D-02-0.116D-01
 Coeff:     -0.141D-01 0.285D-01 0.996D+00
 Gap=     0.396 Goal=   None    Shift=    0.000
 RMSDP=5.67D-09 MaxDP=7.65D-08 DE=-8.58D-12 OVMax= 1.68D-07

 Error on total polarization charges =  0.01005
 SCF Done:  E(RM052X) =  -277.011739848     A.U. after    9 cycles
            NFock=  9  Conv=0.57D-08     -V/T= 2.0074
 KE= 2.749693949225D+02 PE=-8.821820456528D+02 EE= 2.169055764967D+02
 SMD-CDS (non-electrostatic) energy       (kcal/mol) =       2.01
 (included in total energy above)
 Leave Link  502 at Thu Jul 10 14:17:52 2025, MaxMem=  2684354560 cpu:              34.5 elap:               1.8
 (Enter /apps/gaussian/g16c01/g16/l601.exe)
 Copying SCF densities to generalized density rwf, IOpCl= 0 IROHF=0.

 **********************************************************************

            Population analysis using the SCF Density.

 **********************************************************************

 Orbital symmetries:
       Occupied  (A) (A) (A) (A) (A) (A) (A) (A) (A) (A) (A) (A)
                 (A) (A) (A) (A)
       Virtual   (A) (A) (A) (A) (A) (A) (A) (A) (A) (A) (A) (A)
                 (A) (A) (A) (A) (A) (A) (A) (A) (A) (A) (A) (A)
                 (A) (A) (A) (A) (A) (A) (A) (A) (A) (A) (A) (A)
                 (A) (A) (A) (A) (A) (A) (A) (A) (A) (A) (A) (A)
 The electronic state is 1-A.
 Alpha  occ. eigenvalues --  -25.31367 -25.31367 -10.65822 -10.65698  -1.36113
 Alpha  occ. eigenvalues --   -1.34699  -0.88215  -0.71055  -0.63639  -0.62111
 Alpha  occ. eigenvalues --   -0.57014  -0.56029  -0.54068  -0.48681  -0.45092
 Alpha  occ. eigenvalues --   -0.31528
 Alpha virt. eigenvalues --    0.08026   0.13829   0.20617   0.22353   0.34104
 Alpha virt. eigenvalues --    0.46457   0.55177   0.57958   0.59852   0.68122
 Alpha virt. eigenvalues --    0.68621   0.70473   0.89551   0.95146   1.04705
 Alpha virt. eigenvalues --    1.10497   1.17709   1.26110   1.31807   1.34976
 Alpha virt. eigenvalues --    1.43685   1.44411   1.48281   1.52255   1.64615
 Alpha virt. eigenvalues --    1.67648   1.84829   1.85567   1.86158   1.87247
 Alpha virt. eigenvalues --    1.94799   1.96899   1.99505   2.15579   2.15733
 Alpha virt. eigenvalues --    2.33064   2.35170   2.39493   2.51339   2.69749
 Alpha virt. eigenvalues --    2.77321   2.98480   3.03743   3.25980   4.03580
 Alpha virt. eigenvalues --    4.17673   4.36716   4.83980
          Condensed to atoms (all electrons):
               1          2          3          4          5          6
     1  C    4.848817   0.532831   0.370752   0.274122  -0.041007  -0.053431
     2  C    0.532831   4.848817  -0.053431  -0.041007   0.274122   0.370752
     3  H    0.370752  -0.053431   0.479522  -0.030704   0.001407   0.002476
     4  F    0.274122  -0.041007  -0.030704   9.093690   0.000385   0.001407
     5  F   -0.041007   0.274122   0.001407   0.000385   9.093690  -0.030704
     6  H   -0.053431   0.370752   0.002476   0.001407  -0.030704   0.479522
 Mulliken charges:
               1
     1  C    0.067916
     2  C    0.067916
     3  H    0.229977
     4  F   -0.297893
     5  F   -0.297893
     6  H    0.229977
 Sum of Mulliken charges =  -0.00000
 Mulliken charges with hydrogens summed into heavy atoms:
               1
     1  C    0.297893
     2  C    0.297893
     4  F   -0.297893
     5  F   -0.297893
 Electronic spatial extent (au):  <R**2>=            248.9458
 Charge=             -0.0000 electrons
 Dipole moment (field-independent basis, Debye):
    X=              0.0000    Y=              2.9819    Z=              0.0000  Tot=              2.9819
 Quadrupole moment (field-independent basis, Debye-Ang):
   XX=            -21.5933   YY=            -18.5655   ZZ=            -21.9620
   XY=              0.0000   XZ=              0.0000   YZ=              0.0000
 Traceless Quadrupole moment (field-independent basis, Debye-Ang):
   XX=             -0.8864   YY=              2.1415   ZZ=             -1.2551
   XY=              0.0000   XZ=              0.0000   YZ=              0.0000
 Octapole moment (field-independent basis, Debye-Ang**2):
  XXX=              0.0000  YYY=             -3.1721  ZZZ=             -0.0003  XYY=             -0.0000
  XXY=              3.3665  XXZ=              0.0000  XZZ=              0.0000  YZZ=             -3.7539
  YYZ=             -0.0000  XYZ=              0.0000
 Hexadecapole moment (field-independent basis, Debye-Ang**3):
 XXXX=           -164.1931 YYYY=            -62.4949 ZZZZ=            -17.9473 XXXY=              0.0000
 XXXZ=             -0.0004 YYYX=              0.0000 YYYZ=             -0.0005 ZZZX=             -0.0004
 ZZZY=             -0.0008 XXYY=            -33.0923 XXZZ=            -30.0650 YYZZ=            -15.8048
 XXYZ=             -0.0002 YYXZ=             -0.0001 ZZXY=              0.0000
 N-N= 1.132953343857D+02 E-N=-8.821820464818D+02  KE= 2.749693949225D+02
 No NMR shielding tensors so no spin-rotation constants.
 Leave Link  601 at Thu Jul 10 14:17:52 2025, MaxMem=  2684354560 cpu:               2.4 elap:               0.2
 (Enter /apps/gaussian/g16c01/g16/l9999.exe)
 Unable to Open any file for archive entry.
 1\1\GINC-GADI-CPU-CLX-0504\SP\RM052X\6-31G(d)\C2H2F2\YR9300\10-Jul-202
 5\0\\#P M052X/6-31G* scrf(SMD,solvent=n-octanol)\\H2F2_oct_M05-2x\\0,1
 \C,0,-0.660635,0.587117,0.000015\C,0,0.660635,0.587117,0.000022\H,0,-1
 .258924,1.48814,0.000015\F,0,-1.378937,-0.55676,-0.000023\F,0,1.378937
 ,-0.55676,-0.000007\H,0,1.258924,1.48814,0.000029\\Version=ES64L-G16Re
 vC.01\State=1-A\HF=-277.0117398\RMSD=5.671e-09\Dipole=0.,1.1731641,0.0
 000181\Quadrupole=-0.6590084,1.5921389,-0.9331305,0.,0.0000008,0.00001
 92\PG=C01 [X(C2H2F2)]\\@
 The archive entry for this job was punched.


 IT WAS AN ACT OF DESPARATION. FOR SIX YEARS I HAD STRUGGLED WITH THE
 BLACKBODY THEORY. I KNEW THE PROBLEM WAS FUNDAMENTAL, AND I KNEW
 THE ANSWER. I HAD TO FIND A THEORETICAL EXPLANATION AT ANY COST,
 EXCEPT FOR THE INVIOLABLITY OF THE TWO LAWS OF THERMODYNAMICS.
   -- MAX PLANCK, 1931
 Job cpu time:       0 days  0 hours  0 minutes 54.8 seconds.
 Elapsed time:       0 days  0 hours  0 minutes  3.0 seconds.
 File lengths (MBytes):  RWF=     13 Int=      0 D2E=      0 Chk=      2 Scr=      1
 Normal termination of Gaussian 16 at Thu Jul 10 14:17:53 2025.
