 Entering Gaussian System, Link 0=g16
 Initial command:
 /apps/gaussian/g16c01/g16/l1.exe "/jobfs/145007109.gadi-pbs/Gau-2487501.inp" -scrdir="/jobfs/145007109.gadi-pbs/"
 Entering Link 1 = /apps/gaussian/g16c01/g16/l1.exe PID=   2487502.
  
 Copyright (c) 1988-2019, Gaussian, Inc.  All Rights Reserved.
  
 This is part of the Gaussian(R) 16 program.  It is based on
 the Gaussian(R) 09 system (copyright 2009, Gaussian, Inc.),
 the Gaussian(R) 03 system (copyright 2003, Gaussian, Inc.),
 the Gaussian(R) 98 system (copyright 1998, Gaussian, Inc.),
 the Gaussian(R) 94 system (copyright 1995, Gaussian, Inc.),
 the Gaussian 92(TM) system (copyright 1992, Gaussian, Inc.),
 the Gaussian 90(TM) system (copyright 1990, Gaussian, Inc.),
 the Gaussian 88(TM) system (copyright 1988, Gaussian, Inc.),
 the Gaussian 86(TM) system (copyright 1986, Carnegie Mellon
 University), and the Gaussian 82(TM) system (copyright 1983,
 Carnegie Mellon University). Gaussian is a federally registered
 trademark of Gaussian, Inc.
  
 This software contains proprietary and confidential information,
 including trade secrets, belonging to Gaussian, Inc.
  
 This software is provided under written license and may be
 used, copied, transmitted, or stored only in accord with that
 written license.
  
 The following legend is applicable only to US Government
 contracts under FAR:
  
                    RESTRICTED RIGHTS LEGEND
  
 Use, reproduction and disclosure by the US Government is
 subject to restrictions as set forth in subparagraphs (a)
 and (c) of the Commercial Computer Software - Restricted
 Rights clause in FAR 52.227-19.
  
 Gaussian, Inc.
 340 Quinnipiac St., Bldg. 40, Wallingford CT 06492
  
  
 ---------------------------------------------------------------
 Warning -- This program may not be used in any manner that
 competes with the business of Gaussian, Inc. or will provide
 assistance to any competitor of Gaussian, Inc.  The licensee
 of this program is prohibited from giving any competitor of
 Gaussian, Inc. access to this program.  By using this program,
 the user acknowledges that Gaussian, Inc. is engaged in the
 business of creating and licensing software in the field of
 computational chemistry and represents and warrants to the
 licensee that it is not a competitor of Gaussian, Inc. and that
 it will not use this program in any manner prohibited above.
 ---------------------------------------------------------------
  

 Cite this work as:
 Gaussian 16, Revision C.01,
 M. J. Frisch, G. W. Trucks, H. B. Schlegel, G. E. Scuseria, 
 M. A. Robb, J. R. Cheeseman, G. Scalmani, V. Barone, 
 G. A. Petersson, H. Nakatsuji, X. Li, M. Caricato, A. V. Marenich, 
 J. Bloino, B. G. Janesko, R. Gomperts, B. Mennucci, H. P. Hratchian, 
 J. V. Ortiz, A. F. Izmaylov, J. L. Sonnenberg, D. Williams-Young, 
 F. Ding, F. Lipparini, F. Egidi, J. Goings, B. Peng, A. Petrone, 
 T. Henderson, D. Ranasinghe, V. G. Zakrzewski, J. Gao, N. Rega, 
 G. Zheng, W. Liang, M. Hada, M. Ehara, K. Toyota, R. Fukuda, 
 J. Hasegawa, M. Ishida, T. Nakajima, Y. Honda, O. Kitao, H. Nakai, 
 T. Vreven, K. Throssell, J. A. Montgomery, Jr., J. E. Peralta, 
 F. Ogliaro, M. J. Bearpark, J. J. Heyd, E. N. Brothers, K. N. Kudin, 
 V. N. Staroverov, T. A. Keith, R. Kobayashi, J. Normand, 
 K. Raghavachari, A. P. Rendell, J. C. Burant, S. S. Iyengar, 
 J. Tomasi, M. Cossi, J. M. Millam, M. Klene, C. Adamo, R. Cammi, 
 J. W. Ochterski, R. L. Martin, K. Morokuma, O. Farkas, 
 J. B. Foresman, and D. J. Fox, Gaussian, Inc., Wallingford CT, 2019.
 
 ******************************************
 Gaussian 16:  ES64L-G16RevC.01  3-Jul-2019
                10-Jul-2025 
 ******************************************
 %chk=H2F2_oct_vaccum_M05-2x.chk
 %mem=20GB
 %nprocshared=20
 Will use up to   20 processors via shared memory.
 ---------------
 #P M052X/6-31G*
 ---------------
 1/38=1,172=1/1;
 2/12=2,17=6,18=5,40=1/2;
 3/5=1,6=6,7=1,11=2,25=1,30=1,74=-38/1,2,3;
 4//1;
 5/5=2,38=5/2;
 6/7=2,8=2,9=2,10=2,28=1/1;
 99/5=1,9=1/99;
 Leave Link    1 at Thu Jul 10 14:17:48 2025, MaxMem=  2684354560 cpu:               3.7 elap:               0.4
 (Enter /apps/gaussian/g16c01/g16/l101.exe)
 ----------------------
 H2F2_oct_vaccum_M05-2x
 ----------------------
 Symbolic Z-matrix:
 Charge =  0 Multiplicity = 1
 C                    -0.66064   0.58712   0.00002 
 C                     0.66064   0.58712   0.00002 
 H                    -1.25892   1.48814   0.00002 
 F                    -1.37894  -0.55676  -0.00002 
 F                     1.37894  -0.55676  -0.00001 
 H                     1.25892   1.48814   0.00003 
 
 ITRead=  0  0  0  0  0  0
 MicOpt= -1 -1 -1 -1 -1 -1
 NAtoms=      6 NQM=        6 NQMF=       0 NMMI=      0 NMMIF=      0
                NMic=       0 NMicF=      0.
                    Isotopes and Nuclear Properties:
 (Nuclear quadrupole moments (NQMom) in fm**2, nuclear magnetic moments (NMagM)
  in nuclear magnetons)

  Atom         1           2           3           4           5           6
 IAtWgt=          12          12           1          19          19           1
 AtmWgt=  12.0000000  12.0000000   1.0078250  18.9984033  18.9984033   1.0078250
 NucSpn=           0           0           1           1           1           1
 AtZEff=  -0.0000000  -0.0000000  -0.0000000  -0.0000000  -0.0000000  -0.0000000
 NQMom=    0.0000000   0.0000000   0.0000000   0.0000000   0.0000000   0.0000000
 NMagM=    0.0000000   0.0000000   2.7928460   2.6288670   2.6288670   2.7928460
 AtZNuc=   6.0000000   6.0000000   1.0000000   9.0000000   9.0000000   1.0000000
 Leave Link  101 at Thu Jul 10 14:17:48 2025, MaxMem=  2684354560 cpu:               5.9 elap:               0.3
 (Enter /apps/gaussian/g16c01/g16/l202.exe)
                          Input orientation:                          
 ---------------------------------------------------------------------
 Center     Atomic      Atomic             Coordinates (Angstroms)
 Number     Number       Type             X           Y           Z
 ---------------------------------------------------------------------
      1          6           0       -0.660635    0.587117    0.000015
      2          6           0        0.660635    0.587117    0.000022
      3          1           0       -1.258924    1.488140    0.000015
      4          9           0       -1.378937   -0.556760   -0.000023
      5          9           0        1.378937   -0.556760   -0.000007
      6          1           0        1.258924    1.488140    0.000029
 ---------------------------------------------------------------------
                    Distance matrix (angstroms):
                    1          2          3          4          5
     1  C    0.000000
     2  C    1.321270   0.000000
     3  H    1.081569   2.120507   0.000000
     4  F    1.350708   2.338441   2.048419   0.000000
     5  F    2.338441   1.350708   3.337653   2.757874   0.000000
     6  H    2.120507   1.081569   2.517848   3.337653   2.048419
                    6
     6  H    0.000000
 Stoichiometry    C2H2F2
 Framework group  C1[X(C2H2F2)]
 Deg. of freedom    12
 Full point group                 C1      NOp   1
 Largest Abelian subgroup         C1      NOp   1
 Largest concise Abelian subgroup C1      NOp   1
                         Standard orientation:                         
 ---------------------------------------------------------------------
 Center     Atomic      Atomic             Coordinates (Angstroms)
 Number     Number       Type             X           Y           Z
 ---------------------------------------------------------------------
      1          6           0       -0.660635    0.587117    0.000015
      2          6           0        0.660635    0.587117    0.000022
      3          1           0       -1.258924    1.488140    0.000015
      4          9           0       -1.378937   -0.556760   -0.000023
      5          9           0        1.378937   -0.556760   -0.000007
      6          1           0        1.258924    1.488140    0.000029
 ---------------------------------------------------------------------
 Rotational constants (GHZ):          20.8344081           5.8820544           4.5870265
 Leave Link  202 at Thu Jul 10 14:17:49 2025, MaxMem=  2684354560 cpu:               5.8 elap:               0.7
 (Enter /apps/gaussian/g16c01/g16/l301.exe)
 Standard basis: 6-31G(d) (6D, 7F)
 Ernie: Thresh=  0.10000D-02 Tol=  0.10000D-05 Strict=F.
 There are    64 symmetry adapted cartesian basis functions of A   symmetry.
 There are    64 symmetry adapted basis functions of A   symmetry.
    64 basis functions,   120 primitive gaussians,    64 cartesian basis functions
    16 alpha electrons       16 beta electrons
       nuclear repulsion energy       113.2921238469 Hartrees.
 IExCor= 3428 DFT=T Ex+Corr=M052X ExCW=0 ScaHFX=  0.560000
 ScaDFX=  0.440000  0.440000  1.000000  1.000000 ScalE2=  1.000000  1.000000
 IRadAn=      5 IRanWt=     -1 IRanGd=            0 ICorTp=0 IEmpDi=  4
 NAtoms=    6 NActive=    6 NUniq=    6 SFac= 1.00D+00 NAtFMM=   60 NAOKFM=F Big=F
 Integral buffers will be    131072 words long.
 Raffenetti 2 integral format.
 Two-electron integral symmetry is turned on.
 Leave Link  301 at Thu Jul 10 14:17:49 2025, MaxMem=  2684354560 cpu:               1.6 elap:               0.1
 (Enter /apps/gaussian/g16c01/g16/l302.exe)
 NPDir=0 NMtPBC=     1 NCelOv=     1 NCel=       1 NClECP=     1 NCelD=      1
         NCelK=      1 NCelE2=     1 NClLst=     1 CellRange=     0.0.
 One-electron integrals computed using PRISM.
 One-electron integral symmetry used in STVInt
 NBasis=    64 RedAO= T EigKep=  3.01D-03  NBF=    64
 NBsUse=    64 1.00D-06 EigRej= -1.00D+00 NBFU=    64
 Precomputing XC quadrature grid using
 IXCGrd= 4 IRadAn=           5 IRanWt=          -1 IRanGd=           0 AccXCQ= 0.00D+00.
 Generated NRdTot=       0 NPtTot=           0 NUsed=           0 NTot=          32
 NSgBfM=    64    64    64    64    64 MxSgAt=     6 MxSgA2=     6.
 Leave Link  302 at Thu Jul 10 14:17:50 2025, MaxMem=  2684354560 cpu:               5.6 elap:               0.3
 (Enter /apps/gaussian/g16c01/g16/l303.exe)
 DipDrv:  MaxL=1.
 Leave Link  303 at Thu Jul 10 14:17:50 2025, MaxMem=  2684354560 cpu:               1.7 elap:               0.1
 (Enter /apps/gaussian/g16c01/g16/l401.exe)
 ExpMin= 1.61D-01 ExpMax= 7.00D+03 ExpMxC= 1.05D+03 IAcc=3 IRadAn=         5 AccDes= 0.00D+00
 Harris functional with IExCor= 1009 and IRadAn=       5 diagonalized for initial guess.
 HarFok:  IExCor= 1009 AccDes= 0.00D+00 IRadAn=         5 IDoV= 1 UseB2=F ITyADJ=14
 ICtDFT=  3500011 ScaDFX=  1.000000  1.000000  1.000000  1.000000
 FoFCou: FMM=F IPFlag=           0 FMFlag=      100000 FMFlg1=           0
         NFxFlg=           0 DoJE=T BraDBF=F KetDBF=T FulRan=T
         wScrn=  0.000000 ICntrl=       500 IOpCl=  0 I1Cent=   200000004 NGrid=           0
         NMat0=    1 NMatS0=      1 NMatT0=    0 NMatD0=    1 NMtDS0=    0 NMtDT0=    0
 Petite list used in FoFCou.
 Harris En= -276.774882440861    
 JPrj=0 DoOrth=F DoCkMO=F.
 Leave Link  401 at Thu Jul 10 14:17:50 2025, MaxMem=  2684354560 cpu:               4.1 elap:               0.2
 (Enter /apps/gaussian/g16c01/g16/l502.exe)
 Keep R1 ints in memory in canonical form, NReq=19962716.
 FoFCou: FMM=F IPFlag=           0 FMFlag=           0 FMFlg1=           0
         NFxFlg=           0 DoJE=F BraDBF=F KetDBF=F FulRan=T
         wScrn=  0.000000 ICntrl=       600 IOpCl=  0 I1Cent=           0 NGrid=           0
         NMat0=    1 NMatS0=   2080 NMatT0=    0 NMatD0=    1 NMtDS0=    0 NMtDT0=    0
 Symmetry not used in FoFCou.
 Two-electron integral symmetry not used.
 Closed shell SCF:
 Using DIIS extrapolation, IDIIS=  1040.
 NGot=  2684354560 LenX=  2682179902 LenY=  2682175365
 Requested convergence on RMS density matrix=1.00D-08 within 128 cycles.
 Requested convergence on MAX density matrix=1.00D-06.
 Requested convergence on             energy=1.00D-06.
 No special actions if energy rises.
 Integral accuracy reduced to 1.0D-05 until final iterations.

 Cycle   1  Pass 0  IDiag  1:
 E= -276.974221722685    
 DIIS: error= 2.25D-02 at cycle   1 NSaved=   1.
 NSaved= 1 IEnMin= 1 EnMin= -276.974221722685     IErMin= 1 ErrMin= 2.25D-02
 ErrMax= 2.25D-02  0.00D+00 EMaxC= 1.00D-01 BMatC= 4.78D-02 BMatP= 4.78D-02
 IDIUse=3 WtCom= 7.75D-01 WtEn= 2.25D-01
 Coeff-Com:  0.100D+01
 Coeff-En:   0.100D+01
 Coeff:      0.100D+01
 Gap=     0.397 Goal=   None    Shift=    0.000
 GapD=    0.397 DampG=1.000 DampE=0.500 DampFc=0.5000 IDamp=-1.
 Damping current iteration by 5.00D-01
 RMSDP=3.89D-03 MaxDP=4.48D-02              OVMax= 6.39D-02

 Cycle   2  Pass 0  IDiag  1:
 E= -276.992990671013     Delta-E=       -0.018768948328 Rises=F Damp=T
 DIIS: error= 9.01D-03 at cycle   2 NSaved=   2.
 NSaved= 2 IEnMin= 2 EnMin= -276.992990671013     IErMin= 2 ErrMin= 9.01D-03
 ErrMax= 9.01D-03  0.00D+00 EMaxC= 1.00D-01 BMatC= 6.86D-03 BMatP= 4.78D-02
 IDIUse=3 WtCom= 9.10D-01 WtEn= 9.01D-02
 Coeff-Com: -0.434D+00 0.143D+01
 Coeff-En:   0.000D+00 0.100D+01
 Coeff:     -0.395D+00 0.139D+01
 Gap=     0.394 Goal=   None    Shift=    0.000
 RMSDP=1.04D-03 MaxDP=1.57D-02 DE=-1.88D-02 OVMax= 2.02D-02

 Cycle   3  Pass 0  IDiag  1:
 E= -277.008682190786     Delta-E=       -0.015691519773 Rises=F Damp=F
 DIIS: error= 1.47D-03 at cycle   3 NSaved=   3.
 NSaved= 3 IEnMin= 3 EnMin= -277.008682190786     IErMin= 3 ErrMin= 1.47D-03
 ErrMax= 1.47D-03  0.00D+00 EMaxC= 1.00D-01 BMatC= 1.57D-04 BMatP= 6.86D-03
 IDIUse=3 WtCom= 9.85D-01 WtEn= 1.47D-02
 Coeff-Com: -0.969D-01 0.218D+00 0.879D+00
 Coeff-En:   0.000D+00 0.000D+00 0.100D+01
 Coeff:     -0.955D-01 0.215D+00 0.880D+00
 Gap=     0.393 Goal=   None    Shift=    0.000
 RMSDP=1.94D-04 MaxDP=1.52D-03 DE=-1.57D-02 OVMax= 2.81D-03

 Cycle   4  Pass 0  IDiag  1:
 E= -277.008804880620     Delta-E=       -0.000122689833 Rises=F Damp=F
 DIIS: error= 4.38D-04 at cycle   4 NSaved=   4.
 NSaved= 4 IEnMin= 4 EnMin= -277.008804880620     IErMin= 4 ErrMin= 4.38D-04
 ErrMax= 4.38D-04  0.00D+00 EMaxC= 1.00D-01 BMatC= 1.22D-05 BMatP= 1.57D-04
 IDIUse=3 WtCom= 9.96D-01 WtEn= 4.38D-03
 Coeff-Com: -0.156D-01 0.296D-01 0.257D+00 0.729D+00
 Coeff-En:   0.000D+00 0.000D+00 0.000D+00 0.100D+01
 Coeff:     -0.156D-01 0.294D-01 0.256D+00 0.730D+00
 Gap=     0.393 Goal=   None    Shift=    0.000
 RMSDP=5.45D-05 MaxDP=6.26D-04 DE=-1.23D-04 OVMax= 1.17D-03

 Cycle   5  Pass 0  IDiag  1:
 E= -277.008811947467     Delta-E=       -0.000007066847 Rises=F Damp=F
 DIIS: error= 1.98D-04 at cycle   5 NSaved=   5.
 NSaved= 5 IEnMin= 5 EnMin= -277.008811947467     IErMin= 5 ErrMin= 1.98D-04
 ErrMax= 1.98D-04  0.00D+00 EMaxC= 1.00D-01 BMatC= 2.98D-06 BMatP= 1.22D-05
 IDIUse=3 WtCom= 9.98D-01 WtEn= 1.98D-03
 Coeff-Com: -0.173D-02-0.681D-05 0.733D-01 0.386D+00 0.543D+00
 Coeff-En:   0.000D+00 0.000D+00 0.000D+00 0.403D-01 0.960D+00
 Coeff:     -0.173D-02-0.680D-05 0.731D-01 0.385D+00 0.544D+00
 Gap=     0.393 Goal=   None    Shift=    0.000
 RMSDP=1.71D-05 MaxDP=2.06D-04 DE=-7.07D-06 OVMax= 2.84D-04

 Cycle   6  Pass 0  IDiag  1:
 E= -277.008813914325     Delta-E=       -0.000001966858 Rises=F Damp=F
 DIIS: error= 2.94D-05 at cycle   6 NSaved=   6.
 NSaved= 6 IEnMin= 6 EnMin= -277.008813914325     IErMin= 6 ErrMin= 2.94D-05
 ErrMax= 2.94D-05  0.00D+00 EMaxC= 1.00D-01 BMatC= 1.85D-08 BMatP= 2.98D-06
 IDIUse=1 WtCom= 1.00D+00 WtEn= 0.00D+00
 Coeff-Com:  0.178D-02-0.348D-02-0.229D-01-0.444D-01-0.344D-01 0.110D+01
 Coeff:      0.178D-02-0.348D-02-0.229D-01-0.444D-01-0.344D-01 0.110D+01
 Gap=     0.393 Goal=   None    Shift=    0.000
 RMSDP=4.33D-06 MaxDP=3.30D-05 DE=-1.97D-06 OVMax= 1.40D-04

 Initial convergence to 1.0D-05 achieved.  Increase integral accuracy.
 Cycle   7  Pass 1  IDiag  1:
 E= -277.008791810123     Delta-E=        0.000022104202 Rises=F Damp=F
 DIIS: error= 3.30D-05 at cycle   1 NSaved=   1.
 NSaved= 1 IEnMin= 1 EnMin= -277.008791810123     IErMin= 1 ErrMin= 3.30D-05
 ErrMax= 3.30D-05  0.00D+00 EMaxC= 1.00D-01 BMatC= 7.47D-08 BMatP= 7.47D-08
 IDIUse=1 WtCom= 1.00D+00 WtEn= 0.00D+00
 Coeff-Com:  0.100D+01
 Coeff:      0.100D+01
 Gap=     0.393 Goal=   None    Shift=    0.000
 RMSDP=4.33D-06 MaxDP=3.30D-05 DE= 2.21D-05 OVMax= 6.17D-05

 Cycle   8  Pass 1  IDiag  1:
 E= -277.008791869731     Delta-E=       -0.000000059608 Rises=F Damp=F
 DIIS: error= 9.42D-06 at cycle   2 NSaved=   2.
 NSaved= 2 IEnMin= 2 EnMin= -277.008791869731     IErMin= 2 ErrMin= 9.42D-06
 ErrMax= 9.42D-06  0.00D+00 EMaxC= 1.00D-01 BMatC= 8.55D-09 BMatP= 7.47D-08
 IDIUse=1 WtCom= 1.00D+00 WtEn= 0.00D+00
 Coeff-Com:  0.137D+00 0.863D+00
 Coeff:      0.137D+00 0.863D+00
 Gap=     0.393 Goal=   None    Shift=    0.000
 RMSDP=1.73D-06 MaxDP=2.37D-05 DE=-5.96D-08 OVMax= 2.97D-05

 Cycle   9  Pass 1  IDiag  1:
 E= -277.008791871679     Delta-E=       -0.000000001949 Rises=F Damp=F
 DIIS: error= 7.93D-06 at cycle   3 NSaved=   3.
 NSaved= 3 IEnMin= 3 EnMin= -277.008791871679     IErMin= 3 ErrMin= 7.93D-06
 ErrMax= 7.93D-06  0.00D+00 EMaxC= 1.00D-01 BMatC= 6.66D-09 BMatP= 8.55D-09
 IDIUse=1 WtCom= 1.00D+00 WtEn= 0.00D+00
 Coeff-Com: -0.486D-01 0.468D+00 0.581D+00
 Coeff:     -0.486D-01 0.468D+00 0.581D+00
 Gap=     0.393 Goal=   None    Shift=    0.000
 RMSDP=8.23D-07 MaxDP=1.01D-05 DE=-1.95D-09 OVMax= 1.34D-05

 Cycle  10  Pass 1  IDiag  1:
 E= -277.008791875739     Delta-E=       -0.000000004059 Rises=F Damp=F
 DIIS: error= 3.82D-07 at cycle   4 NSaved=   4.
 NSaved= 4 IEnMin= 4 EnMin= -277.008791875739     IErMin= 4 ErrMin= 3.82D-07
 ErrMax= 3.82D-07  0.00D+00 EMaxC= 1.00D-01 BMatC= 1.11D-11 BMatP= 6.66D-09
 IDIUse=1 WtCom= 1.00D+00 WtEn= 0.00D+00
 Coeff-Com: -0.247D-02-0.506D-02 0.162D-01 0.991D+00
 Coeff:     -0.247D-02-0.506D-02 0.162D-01 0.991D+00
 Gap=     0.393 Goal=   None    Shift=    0.000
 RMSDP=8.26D-08 MaxDP=1.07D-06 DE=-4.06D-09 OVMax= 1.96D-06

 Cycle  11  Pass 1  IDiag  1:
 E= -277.008791875755     Delta-E=       -0.000000000017 Rises=F Damp=F
 DIIS: error= 1.86D-07 at cycle   5 NSaved=   5.
 NSaved= 5 IEnMin= 5 EnMin= -277.008791875755     IErMin= 5 ErrMin= 1.86D-07
 ErrMax= 1.86D-07  0.00D+00 EMaxC= 1.00D-01 BMatC= 1.99D-12 BMatP= 1.11D-11
 IDIUse=1 WtCom= 1.00D+00 WtEn= 0.00D+00
 Coeff-Com:  0.210D-02-0.308D-01-0.339D-01 0.274D+00 0.789D+00
 Coeff:      0.210D-02-0.308D-01-0.339D-01 0.274D+00 0.789D+00
 Gap=     0.393 Goal=   None    Shift=    0.000
 RMSDP=2.65D-08 MaxDP=2.82D-07 DE=-1.66D-11 OVMax= 5.55D-07

 Cycle  12  Pass 1  IDiag  1:
 E= -277.008791875758     Delta-E=       -0.000000000002 Rises=F Damp=F
 DIIS: error= 2.52D-08 at cycle   6 NSaved=   6.
 NSaved= 6 IEnMin= 6 EnMin= -277.008791875758     IErMin= 6 ErrMin= 2.52D-08
 ErrMax= 2.52D-08  0.00D+00 EMaxC= 1.00D-01 BMatC= 3.66D-14 BMatP= 1.99D-12
 IDIUse=1 WtCom= 1.00D+00 WtEn= 0.00D+00
 Coeff-Com:  0.170D-03-0.910D-03-0.177D-02-0.392D-01 0.373D-01 0.100D+01
 Coeff:      0.170D-03-0.910D-03-0.177D-02-0.392D-01 0.373D-01 0.100D+01
 Gap=     0.393 Goal=   None    Shift=    0.000
 RMSDP=6.41D-09 MaxDP=5.55D-08 DE=-2.39D-12 OVMax= 1.86D-07

 SCF Done:  E(RM052X) =  -277.008791876     A.U. after   12 cycles
            NFock= 12  Conv=0.64D-08     -V/T= 2.0075
 KE= 2.749426689187D+02 PE=-8.820027498814D+02 EE= 2.167591652400D+02
 Leave Link  502 at Thu Jul 10 14:17:51 2025, MaxMem=  2684354560 cpu:              21.6 elap:               1.3
 (Enter /apps/gaussian/g16c01/g16/l601.exe)
 Copying SCF densities to generalized density rwf, IOpCl= 0 IROHF=0.

 **********************************************************************

            Population analysis using the SCF Density.

 **********************************************************************

 Orbital symmetries:
       Occupied  (A) (A) (A) (A) (A) (A) (A) (A) (A) (A) (A) (A)
                 (A) (A) (A) (A)
       Virtual   (A) (A) (A) (A) (A) (A) (A) (A) (A) (A) (A) (A)
                 (A) (A) (A) (A) (A) (A) (A) (A) (A) (A) (A) (A)
                 (A) (A) (A) (A) (A) (A) (A) (A) (A) (A) (A) (A)
                 (A) (A) (A) (A) (A) (A) (A) (A) (A) (A) (A) (A)
 The electronic state is 1-A.
 Alpha  occ. eigenvalues --  -25.31453 -25.31453 -10.66874 -10.66750  -1.36144
 Alpha  occ. eigenvalues --   -1.34713  -0.89115  -0.71615  -0.64424  -0.62281
 Alpha  occ. eigenvalues --   -0.57055  -0.56537  -0.53954  -0.49155  -0.45676
 Alpha  occ. eigenvalues --   -0.32175
 Alpha virt. eigenvalues --    0.07136   0.13001   0.18087   0.19895   0.33181
 Alpha virt. eigenvalues --    0.45311   0.53824   0.57205   0.59489   0.67197
 Alpha virt. eigenvalues --    0.67986   0.69528   0.88397   0.93398   1.03788
 Alpha virt. eigenvalues --    1.09295   1.18381   1.26066   1.31946   1.35228
 Alpha virt. eigenvalues --    1.43862   1.44026   1.48668   1.51885   1.64403
 Alpha virt. eigenvalues --    1.67220   1.84249   1.85632   1.86211   1.87436
 Alpha virt. eigenvalues --    1.95020   1.96623   1.98740   2.15333   2.15481
 Alpha virt. eigenvalues --    2.32481   2.34500   2.39336   2.50925   2.69246
 Alpha virt. eigenvalues --    2.76387   2.98070   3.03604   3.25545   4.03840
 Alpha virt. eigenvalues --    4.16696   4.36145   4.83733
          Condensed to atoms (all electrons):
               1          2          3          4          5          6
     1  C    4.833315   0.523523   0.369555   0.283682  -0.040974  -0.060446
     2  C    0.523523   4.833315  -0.060446  -0.040974   0.283682   0.369555
     3  H    0.369555  -0.060446   0.531239  -0.032553   0.001499   0.003072
     4  F    0.283682  -0.040974  -0.032553   9.066981   0.000346   0.001499
     5  F   -0.040974   0.283682   0.001499   0.000346   9.066981  -0.032553
     6  H   -0.060446   0.369555   0.003072   0.001499  -0.032553   0.531239
 Mulliken charges:
               1
     1  C    0.091346
     2  C    0.091346
     3  H    0.187634
     4  F   -0.278980
     5  F   -0.278980
     6  H    0.187634
 Sum of Mulliken charges =  -0.00000
 Mulliken charges with hydrogens summed into heavy atoms:
               1
     1  C    0.278980
     2  C    0.278980
     4  F   -0.278980
     5  F   -0.278980
 Electronic spatial extent (au):  <R**2>=            249.3527
 Charge=             -0.0000 electrons
 Dipole moment (field-independent basis, Debye):
    X=              0.0000    Y=              2.4842    Z=              0.0000  Tot=              2.4842
 Quadrupole moment (field-independent basis, Debye-Ang):
   XX=            -21.6191   YY=            -19.0873   ZZ=            -21.9618
   XY=              0.0000   XZ=              0.0000   YZ=              0.0000
 Traceless Quadrupole moment (field-independent basis, Debye-Ang):
   XX=             -0.7297   YY=              1.8021   ZZ=             -1.0724
   XY=              0.0000   XZ=              0.0000   YZ=              0.0000
 Octapole moment (field-independent basis, Debye-Ang**2):
  XXX=              0.0000  YYY=             -4.8026  ZZZ=             -0.0004  XYY=             -0.0000
  XXY=              2.2888  XXZ=             -0.0000  XZZ=              0.0000  YZZ=             -3.8923
  YYZ=             -0.0000  XYZ=              0.0000
 Hexadecapole moment (field-independent basis, Debye-Ang**3):
 XXXX=           -164.3817 YYYY=            -65.3234 ZZZZ=            -17.9467 XXXY=              0.0000
 XXXZ=             -0.0004 YYYX=              0.0000 YYYZ=             -0.0006 ZZZX=             -0.0004
 ZZZY=             -0.0008 XXYY=            -34.1314 XXZZ=            -30.0991 YYZZ=            -15.9794
 XXYZ=             -0.0002 YYXZ=             -0.0001 ZZXY=              0.0000
 N-N= 1.132921238469D+02 E-N=-8.820027485550D+02  KE= 2.749426689187D+02
 No NMR shielding tensors so no spin-rotation constants.
 Leave Link  601 at Thu Jul 10 14:17:52 2025, MaxMem=  2684354560 cpu:               4.5 elap:               0.3
 (Enter /apps/gaussian/g16c01/g16/l9999.exe)
 Unable to Open any file for archive entry.
 1\1\GINC-GADI-CPU-CLX-0118\SP\RM052X\6-31G(d)\C2H2F2\YR9300\10-Jul-202
 5\0\\#P M052X/6-31G*\\H2F2_oct_vaccum_M05-2x\\0,1\C,0,-0.660635,0.5871
 17,0.000015\C,0,0.660635,0.587117,0.000022\H,0,-1.258924,1.48814,0.000
 015\F,0,-1.378937,-0.55676,-0.000023\F,0,1.378937,-0.55676,-0.000007\H
 ,0,1.258924,1.48814,0.000029\\Version=ES64L-G16RevC.01\State=1-A\HF=-2
 77.0087919\RMSD=6.411e-09\Dipole=0.,0.9773682,0.0000154\Quadrupole=-0.
 5425014,1.339803,-0.7973016,0.,0.0000008,0.0000154\PG=C01 [X(C2H2F2)]\
 \@
 The archive entry for this job was punched.


 THE WORLD OF CHEMICAL REACTIONS IS LIKE A STAGE,
 ON WHICH SCENE AFTER SCENE IS CEASELESSLY PLAYED.
 THE ACTORS ON IT ARE THE ELEMENTS.
   -- CLEMENS WINKLER   BER. 30,13(1897)
 (DISCOVERER OF GERMANIUM, FEB 6, 1886)
 Job cpu time:       0 days  0 hours  0 minutes 56.5 seconds.
 Elapsed time:       0 days  0 hours  0 minutes  4.0 seconds.
 File lengths (MBytes):  RWF=      6 Int=      0 D2E=      0 Chk=      1 Scr=      1
 Normal termination of Gaussian 16 at Thu Jul 10 14:17:52 2025.
