 Entering Gaussian System, Link 0=g16
 Initial command:
 /apps/gaussian/g16c01/g16/l1.exe "/jobfs/145007937.gadi-pbs/Gau-160457.inp" -scrdir="/jobfs/145007937.gadi-pbs/"
 Entering Link 1 = /apps/gaussian/g16c01/g16/l1.exe PID=    160458.
  
 Copyright (c) 1988-2019, Gaussian, Inc.  All Rights Reserved.
  
 This is part of the Gaussian(R) 16 program.  It is based on
 the Gaussian(R) 09 system (copyright 2009, Gaussian, Inc.),
 the Gaussian(R) 03 system (copyright 2003, Gaussian, Inc.),
 the Gaussian(R) 98 system (copyright 1998, Gaussian, Inc.),
 the Gaussian(R) 94 system (copyright 1995, Gaussian, Inc.),
 the Gaussian 92(TM) system (copyright 1992, Gaussian, Inc.),
 the Gaussian 90(TM) system (copyright 1990, Gaussian, Inc.),
 the Gaussian 88(TM) system (copyright 1988, Gaussian, Inc.),
 the Gaussian 86(TM) system (copyright 1986, Carnegie Mellon
 University), and the Gaussian 82(TM) system (copyright 1983,
 Carnegie Mellon University). Gaussian is a federally registered
 trademark of Gaussian, Inc.
  
 This software contains proprietary and confidential information,
 including trade secrets, belonging to Gaussian, Inc.
  
 This software is provided under written license and may be
 used, copied, transmitted, or stored only in accord with that
 written license.
  
 The following legend is applicable only to US Government
 contracts under FAR:
  
                    RESTRICTED RIGHTS LEGEND
  
 Use, reproduction and disclosure by the US Government is
 subject to restrictions as set forth in subparagraphs (a)
 and (c) of the Commercial Computer Software - Restricted
 Rights clause in FAR 52.227-19.
  
 Gaussian, Inc.
 340 Quinnipiac St., Bldg. 40, Wallingford CT 06492
  
  
 ---------------------------------------------------------------
 Warning -- This program may not be used in any manner that
 competes with the business of Gaussian, Inc. or will provide
 assistance to any competitor of Gaussian, Inc.  The licensee
 of this program is prohibited from giving any competitor of
 Gaussian, Inc. access to this program.  By using this program,
 the user acknowledges that Gaussian, Inc. is engaged in the
 business of creating and licensing software in the field of
 computational chemistry and represents and warrants to the
 licensee that it is not a competitor of Gaussian, Inc. and that
 it will not use this program in any manner prohibited above.
 ---------------------------------------------------------------
  

 Cite this work as:
 Gaussian 16, Revision C.01,
 M. J. Frisch, G. W. Trucks, H. B. Schlegel, G. E. Scuseria, 
 M. A. Robb, J. R. Cheeseman, G. Scalmani, V. Barone, 
 G. A. Petersson, H. Nakatsuji, X. Li, M. Caricato, A. V. Marenich, 
 J. Bloino, B. G. Janesko, R. Gomperts, B. Mennucci, H. P. Hratchian, 
 J. V. Ortiz, A. F. Izmaylov, J. L. Sonnenberg, D. Williams-Young, 
 F. Ding, F. Lipparini, F. Egidi, J. Goings, B. Peng, A. Petrone, 
 T. Henderson, D. Ranasinghe, V. G. Zakrzewski, J. Gao, N. Rega, 
 G. Zheng, W. Liang, M. Hada, M. Ehara, K. Toyota, R. Fukuda, 
 J. Hasegawa, M. Ishida, T. Nakajima, Y. Honda, O. Kitao, H. Nakai, 
 T. Vreven, K. Throssell, J. A. Montgomery, Jr., J. E. Peralta, 
 F. Ogliaro, M. J. Bearpark, J. J. Heyd, E. N. Brothers, K. N. Kudin, 
 V. N. Staroverov, T. A. Keith, R. Kobayashi, J. Normand, 
 K. Raghavachari, A. P. Rendell, J. C. Burant, S. S. Iyengar, 
 J. Tomasi, M. Cossi, J. M. Millam, M. Klene, C. Adamo, R. Cammi, 
 J. W. Ochterski, R. L. Martin, K. Morokuma, O. Farkas, 
 J. B. Foresman, and D. J. Fox, Gaussian, Inc., Wallingford CT, 2019.
 
 ******************************************
 Gaussian 16:  ES64L-G16RevC.01  3-Jul-2019
                10-Jul-2025 
 ******************************************
 %chk=H2F2_wat_M05-2x.chk
 %mem=20GB
 %nprocshared=20
 Will use up to   20 processors via shared memory.
 -------------------------------------------------------------
 #p opt freq b3lyp/6-311g(d) scrf=(smd,solvent=water) em=gd3bj
 -------------------------------------------------------------
 1/18=20,19=15,26=3,38=1/1,3;
 2/9=110,12=2,17=6,18=5,40=1/2;
 3/5=4,6=6,7=1,11=2,25=1,30=1,70=32201,71=1,72=1,74=-5,124=41/1,2,3;
 4//1;
 5/5=2,38=5,53=1/2;
 6/7=2,8=2,9=2,10=2,28=1/1;
 7//1,2,3,16;
 1/18=20,19=15,26=3/3(2);
 2/9=110/2;
 99//99;
 2/9=110/2;
 3/5=4,6=6,7=1,11=2,25=1,30=1,70=32205,71=1,72=1,74=-5,124=41/1,2,3;
 4/5=5,16=3,69=1/1;
 5/5=2,38=5,53=1/2;
 7//1,2,3,16;
 1/18=20,19=15,26=3/3(-5);
 2/9=110/2;
 6/7=2,8=2,9=2,10=2,19=2,28=1/1;
 99/9=1/99;
 Leave Link    1 at Thu Jul 10 14:46:22 2025, MaxMem=  2684354560 cpu:               0.9 elap:               0.1
 (Enter /apps/gaussian/g16c01/g16/l101.exe)
 ---------------
 H2F2_wat_M05-2x
 ---------------
 Symbolic Z-matrix:
 Charge =  0 Multiplicity = 1
 C                    -0.6606    0.59      0.00002 
 C                     0.6606    0.59      0.00002 
 H                    -1.26236   1.48791   0.00002 
 F                    -1.37407  -0.55866  -0.00002 
 F                     1.37407  -0.55866  -0.00001 
 H                     1.26236   1.48791   0.00003 
 
 ITRead=  0  0  0  0  0  0
 MicOpt= -1 -1 -1 -1 -1 -1
 NAtoms=      6 NQM=        6 NQMF=       0 NMMI=      0 NMMIF=      0
                NMic=       0 NMicF=      0.
                    Isotopes and Nuclear Properties:
 (Nuclear quadrupole moments (NQMom) in fm**2, nuclear magnetic moments (NMagM)
  in nuclear magnetons)

  Atom         1           2           3           4           5           6
 IAtWgt=          12          12           1          19          19           1
 AtmWgt=  12.0000000  12.0000000   1.0078250  18.9984033  18.9984033   1.0078250
 NucSpn=           0           0           1           1           1           1
 AtZEff=  -0.0000000  -0.0000000  -0.0000000  -0.0000000  -0.0000000  -0.0000000
 NQMom=    0.0000000   0.0000000   0.0000000   0.0000000   0.0000000   0.0000000
 NMagM=    0.0000000   0.0000000   2.7928460   2.6288670   2.6288670   2.7928460
 AtZNuc=   6.0000000   6.0000000   1.0000000   9.0000000   9.0000000   1.0000000
 Leave Link  101 at Thu Jul 10 14:46:23 2025, MaxMem=  2684354560 cpu:               5.4 elap:               0.6
 (Enter /apps/gaussian/g16c01/g16/l103.exe)

 GradGradGradGradGradGradGradGradGradGradGradGradGradGradGradGradGradGrad
 Berny optimization.
 Initialization pass.
                           ----------------------------
                           !    Initial Parameters    !
                           ! (Angstroms and Degrees)  !
 --------------------------                            --------------------------
 ! Name  Definition              Value          Derivative Info.                !
 --------------------------------------------------------------------------------
 ! R1    R(1,2)                  1.3212         estimate D2E/DX2                !
 ! R2    R(1,3)                  1.0809         estimate D2E/DX2                !
 ! R3    R(1,4)                  1.3522         estimate D2E/DX2                !
 ! R4    R(2,5)                  1.3522         estimate D2E/DX2                !
 ! R5    R(2,6)                  1.0809         estimate D2E/DX2                !
 ! A1    A(2,1,3)              123.8294         estimate D2E/DX2                !
 ! A2    A(2,1,4)              121.8462         estimate D2E/DX2                !
 ! A3    A(3,1,4)              114.3245         estimate D2E/DX2                !
 ! A4    A(1,2,5)              121.8462         estimate D2E/DX2                !
 ! A5    A(1,2,6)              123.8294         estimate D2E/DX2                !
 ! A6    A(5,2,6)              114.3245         estimate D2E/DX2                !
 ! D1    D(3,1,2,5)           -179.9986         estimate D2E/DX2                !
 ! D2    D(3,1,2,6)              0.0            estimate D2E/DX2                !
 ! D3    D(4,1,2,5)             -0.0001         estimate D2E/DX2                !
 ! D4    D(4,1,2,6)            179.9985         estimate D2E/DX2                !
 --------------------------------------------------------------------------------
 Trust Radius=3.00D-01 FncErr=1.00D-07 GrdErr=1.00D-06 EigMax=2.50D+02 EigMin=1.00D-04
 Number of steps in this run=     25 maximum allowed number of steps=    100.
 GradGradGradGradGradGradGradGradGradGradGradGradGradGradGradGradGradGrad

 Leave Link  103 at Thu Jul 10 14:46:23 2025, MaxMem=  2684354560 cpu:               0.7 elap:               0.1
 (Enter /apps/gaussian/g16c01/g16/l202.exe)
                          Input orientation:                          
 ---------------------------------------------------------------------
 Center     Atomic      Atomic             Coordinates (Angstroms)
 Number     Number       Type             X           Y           Z
 ---------------------------------------------------------------------
      1          6           0       -0.660595    0.589998    0.000015
      2          6           0        0.660595    0.589998    0.000022
      3          1           0       -1.262362    1.487911    0.000015
      4          9           0       -1.374072   -0.558655   -0.000023
      5          9           0        1.374072   -0.558655   -0.000007
      6          1           0        1.262362    1.487911    0.000029
 ---------------------------------------------------------------------
                    Distance matrix (angstroms):
                    1          2          3          4          5
     1  C    0.000000
     2  C    1.321190   0.000000
     3  H    1.080912   2.122266   0.000000
     4  F    1.352203   2.336509   2.049613   0.000000
     5  F    2.336509   1.352203   3.337546   2.748144   0.000000
     6  H    2.122266   1.080912   2.524724   3.337546   2.049613
                    6
     6  H    0.000000
 Stoichiometry    C2H2F2
 Framework group  C1[X(C2H2F2)]
 Deg. of freedom    12
 Full point group                 C1      NOp   1
 Largest Abelian subgroup         C1      NOp   1
 Largest concise Abelian subgroup C1      NOp   1
                         Standard orientation:                         
 ---------------------------------------------------------------------
 Center     Atomic      Atomic             Coordinates (Angstroms)
 Number     Number       Type             X           Y           Z
 ---------------------------------------------------------------------
      1          6           0       -0.660595    0.589998    0.000015
      2          6           0        0.660595    0.589998    0.000022
      3          1           0       -1.262362    1.487911    0.000015
      4          9           0       -1.374072   -0.558655   -0.000023
      5          9           0        1.374072   -0.558655   -0.000007
      6          1           0        1.262362    1.487911    0.000029
 ---------------------------------------------------------------------
 Rotational constants (GHZ):          20.6979609           5.9159796           4.6009239
 Leave Link  202 at Thu Jul 10 14:46:23 2025, MaxMem=  2684354560 cpu:               0.8 elap:               0.1
 (Enter /apps/gaussian/g16c01/g16/l301.exe)
 Standard basis: 6-311G(d) (5D, 7F)
 Ernie: Thresh=  0.10000D-02 Tol=  0.10000D-05 Strict=F.
 There are    82 symmetry adapted cartesian basis functions of A   symmetry.
 There are    78 symmetry adapted basis functions of A   symmetry.
    78 basis functions,   138 primitive gaussians,    82 cartesian basis functions
    16 alpha electrons       16 beta electrons
       nuclear repulsion energy       113.3193582743 Hartrees.
 IExCor=  402 DFT=T Ex+Corr=B3LYP ExCW=0 ScaHFX=  0.200000
 ScaDFX=  0.800000  0.720000  1.000000  0.810000 ScalE2=  1.000000  1.000000
 IRadAn=      5 IRanWt=     -1 IRanGd=            0 ICorTp=0 IEmpDi=141
 NAtoms=    6 NActive=    6 NUniq=    6 SFac= 1.00D+00 NAtFMM=   60 NAOKFM=F Big=F
 Integral buffers will be    131072 words long.
 Raffenetti 2 integral format.
 Two-electron integral symmetry is turned on.
 R6Disp:  Grimme-D3(BJ) Dispersion energy=       -0.0044621108 Hartrees.
 Nuclear repulsion after empirical dispersion term =      113.3148961635 Hartrees.
 ------------------------------------------------------------------------------
 Polarizable Continuum Model (PCM)
 =================================
 Model                : PCM.
 Atomic radii         : SMD-Coulomb.
 Polarization charges : Total charges.
 Charge compensation  : None.
 Solution method      : On-the-fly selection.
 Cavity type          : VdW (van der Waals Surface) (Alpha=1.000).
 Cavity algorithm     : GePol (No added spheres)
                        Default sphere list used, NSphG=    6.
                        Lebedev-Laikov grids with approx.  5.0 points / Ang**2.
                        Smoothing algorithm: York/Karplus (Gamma=1.0000).
                        Polarization charges: spherical gaussians, with
                                              point-specific exponents (IZeta= 3).
                        Self-potential: point-specific (ISelfS= 7).
                        Self-field    : sphere-specific E.n sum rule (ISelfD= 2).
 1st derivatives      : Analytical E(r).r(x)/FMM algorithm (CHGder, D1EAlg=3).
                        Cavity 1st derivative terms included.
 Solvent              : Water, Eps=  78.355300 Eps(inf)=   1.777849
 ------------------------------------------------------------------------------
 Spheres list:
 ISph  on   Nord     Re0    Alpha      Xe            Ye            Ze
    1   C      1    1.8500  1.000     -0.660595      0.589998      0.000015
    2   C      2    1.8500  1.000      0.660595      0.589998      0.000022
    3   H      3    1.2000  1.000     -1.262362      1.487911      0.000015
    4   F      4    1.7300  1.000     -1.374072     -0.558655     -0.000023
    5   F      5    1.7300  1.000      1.374072     -0.558655     -0.000007
    6   H      6    1.2000  1.000      1.262362      1.487911      0.000029
 ------------------------------------------------------------------------------
 GePol: Number of generator spheres                  =       6
 GePol: Total number of spheres                      =       6
 GePol: Number of exposed spheres                    =       6 (100.00%)
 GePol: Number of points                             =     624
 GePol: Average weight of points                     =       0.14
 GePol: Minimum weight of points                     =   0.23D-09
 GePol: Maximum weight of points                     =    0.21501
 GePol: Number of points with low weight             =      22
 GePol: Fraction of low-weight points (<1% of avg)   =       3.53%
 GePol: Cavity surface area                          =     84.765 Ang**2
 GePol: Cavity volume                                =     63.110 Ang**3
 ------------------------------------------------------------------------------
 Atomic radii for non-electrostatic terms: SMD-CDS.
 ------------------------------------------------------------------------------
 PCM non-electrostatic energy =         0.0067612933 Hartrees.
 Nuclear repulsion after PCM non-electrostatic terms =      113.3216574568 Hartrees.
 Leave Link  301 at Thu Jul 10 14:46:23 2025, MaxMem=  2684354560 cpu:               1.4 elap:               0.1
 (Enter /apps/gaussian/g16c01/g16/l302.exe)
 NPDir=0 NMtPBC=     1 NCelOv=     1 NCel=       1 NClECP=     1 NCelD=      1
         NCelK=      1 NCelE2=     1 NClLst=     1 CellRange=     0.0.
 One-electron integrals computed using PRISM.
 One-electron integral symmetry used in STVInt
 NBasis=    78 RedAO= T EigKep=  3.12D-03  NBF=    78
 NBsUse=    78 1.00D-06 EigRej= -1.00D+00 NBFU=    78
 Precomputing XC quadrature grid using
 IXCGrd= 4 IRadAn=           5 IRanWt=          -1 IRanGd=           0 AccXCQ= 0.00D+00.
 Generated NRdTot=       0 NPtTot=           0 NUsed=           0 NTot=          32
 NSgBfM=    82    82    82    82    82 MxSgAt=     6 MxSgA2=     6.
 Leave Link  302 at Thu Jul 10 14:46:23 2025, MaxMem=  2684354560 cpu:               5.8 elap:               0.3
 (Enter /apps/gaussian/g16c01/g16/l303.exe)
 DipDrv:  MaxL=1.
 Leave Link  303 at Thu Jul 10 14:46:24 2025, MaxMem=  2684354560 cpu:               1.8 elap:               0.1
 (Enter /apps/gaussian/g16c01/g16/l401.exe)
 ExpMin= 1.03D-01 ExpMax= 1.14D+04 ExpMxC= 1.72D+03 IAcc=3 IRadAn=         5 AccDes= 0.00D+00
 Harris functional with IExCor=  402 and IRadAn=       5 diagonalized for initial guess.
 HarFok:  IExCor=  402 AccDes= 0.00D+00 IRadAn=         5 IDoV= 1 UseB2=F ITyADJ=14
 ICtDFT=  3500011 ScaDFX=  1.000000  1.000000  1.000000  1.000000
 FoFCou: FMM=F IPFlag=           0 FMFlag=      100000 FMFlg1=           0
         NFxFlg=           0 DoJE=T BraDBF=F KetDBF=T FulRan=T
         wScrn=  0.000000 ICntrl=       500 IOpCl=  0 I1Cent=   200000004 NGrid=           0
         NMat0=    1 NMatS0=      1 NMatT0=    0 NMatD0=    1 NMtDS0=    0 NMtDT0=    0
 Petite list used in FoFCou.
 Harris En= -277.109529061742    
 JPrj=0 DoOrth=F DoCkMO=F.
 Leave Link  401 at Thu Jul 10 14:46:24 2025, MaxMem=  2684354560 cpu:               5.4 elap:               0.3
 (Enter /apps/gaussian/g16c01/g16/l502.exe)
 Keep R1 ints in memory in canonical form, NReq=22865365.
 FoFCou: FMM=F IPFlag=           0 FMFlag=           0 FMFlg1=           0
         NFxFlg=           0 DoJE=F BraDBF=F KetDBF=F FulRan=T
         wScrn=  0.000000 ICntrl=       600 IOpCl=  0 I1Cent=           0 NGrid=           0
         NMat0=    1 NMatS0=   3081 NMatT0=    0 NMatD0=    1 NMtDS0=    0 NMtDT0=    0
 Symmetry not used in FoFCou.
 Two-electron integral symmetry not used.
 Closed shell SCF:
 Using DIIS extrapolation, IDIIS=  1040.
 NGot=  2684354560 LenX=  2679590577 LenY=  2679583412
 Requested convergence on RMS density matrix=1.00D-08 within 128 cycles.
 Requested convergence on MAX density matrix=1.00D-06.
 Requested convergence on             energy=1.00D-06.
 No special actions if energy rises.

 Cycle   1  Pass 1  IDiag  1:
 Inv3:  Mode=1 IEnd=     1168128.
 Iteration    1 A*A^-1 deviation from unit magnitude is 2.66D-15 for    377.
 Iteration    1 A*A^-1 deviation from orthogonality  is 1.90D-15 for    564    125.
 Iteration    1 A^-1*A deviation from unit magnitude is 2.22D-15 for    623.
 Iteration    1 A^-1*A deviation from orthogonality  is 1.95D-14 for    390    360.
 E= -277.094117771370    
 DIIS: error= 2.90D-02 at cycle   1 NSaved=   1.
 NSaved= 1 IEnMin= 1 EnMin= -277.094117771370     IErMin= 1 ErrMin= 2.90D-02
 ErrMax= 2.90D-02  0.00D+00 EMaxC= 1.00D-01 BMatC= 5.50D-02 BMatP= 5.50D-02
 IDIUse=3 WtCom= 7.10D-01 WtEn= 2.90D-01
 Coeff-Com:  0.100D+01
 Coeff-En:   0.100D+01
 Coeff:      0.100D+01
 Gap=     0.278 Goal=   None    Shift=    0.000
 GapD=    0.278 DampG=1.000 DampE=0.500 DampFc=0.5000 IDamp=-1.
 Damping current iteration by 5.00D-01
 RMSDP=3.16D-03 MaxDP=4.46D-02              OVMax= 7.49D-02

 Cycle   2  Pass 1  IDiag  1:
 E= -277.113468912948     Delta-E=       -0.019351141578 Rises=F Damp=T
 DIIS: error= 5.11D-03 at cycle   2 NSaved=   2.
 NSaved= 2 IEnMin= 2 EnMin= -277.113468912948     IErMin= 2 ErrMin= 5.11D-03
 ErrMax= 5.11D-03  0.00D+00 EMaxC= 1.00D-01 BMatC= 3.49D-03 BMatP= 5.50D-02
 IDIUse=3 WtCom= 9.49D-01 WtEn= 5.11D-02
 Coeff-Com: -0.160D+00 0.116D+01
 Coeff-En:   0.000D+00 0.100D+01
 Coeff:     -0.152D+00 0.115D+01
 Gap=     0.282 Goal=   None    Shift=    0.000
 RMSDP=6.13D-04 MaxDP=4.81D-03 DE=-1.94D-02 OVMax= 3.05D-02

 Cycle   3  Pass 1  IDiag  1:
 E= -277.130128942652     Delta-E=       -0.016660029704 Rises=F Damp=F
 DIIS: error= 4.68D-03 at cycle   3 NSaved=   3.
 NSaved= 3 IEnMin= 3 EnMin= -277.130128942652     IErMin= 3 ErrMin= 4.68D-03
 ErrMax= 4.68D-03  0.00D+00 EMaxC= 1.00D-01 BMatC= 1.27D-03 BMatP= 3.49D-03
 IDIUse=3 WtCom= 9.53D-01 WtEn= 4.68D-02
 Coeff-Com: -0.119D+00 0.473D+00 0.647D+00
 Coeff-En:   0.000D+00 0.000D+00 0.100D+01
 Coeff:     -0.114D+00 0.450D+00 0.663D+00
 Gap=     0.280 Goal=   None    Shift=    0.000
 RMSDP=3.49D-04 MaxDP=3.96D-03 DE=-1.67D-02 OVMax= 8.10D-03

 Cycle   4  Pass 1  IDiag  1:
 E= -277.130635027313     Delta-E=       -0.000506084662 Rises=F Damp=F
 DIIS: error= 2.20D-03 at cycle   4 NSaved=   4.
 NSaved= 4 IEnMin= 4 EnMin= -277.130635027313     IErMin= 4 ErrMin= 2.20D-03
 ErrMax= 2.20D-03  0.00D+00 EMaxC= 1.00D-01 BMatC= 2.98D-04 BMatP= 1.27D-03
 IDIUse=3 WtCom= 9.78D-01 WtEn= 2.20D-02
 Coeff-Com: -0.430D-01 0.144D+00 0.375D+00 0.525D+00
 Coeff-En:   0.000D+00 0.000D+00 0.216D+00 0.784D+00
 Coeff:     -0.421D-01 0.140D+00 0.371D+00 0.530D+00
 Gap=     0.280 Goal=   None    Shift=    0.000
 RMSDP=1.35D-04 MaxDP=2.15D-03 DE=-5.06D-04 OVMax= 3.55D-03

 Cycle   5  Pass 1  IDiag  1:
 E= -277.130842267914     Delta-E=       -0.000207240601 Rises=F Damp=F
 DIIS: error= 3.04D-04 at cycle   5 NSaved=   5.
 NSaved= 5 IEnMin= 5 EnMin= -277.130842267914     IErMin= 5 ErrMin= 3.04D-04
 ErrMax= 3.04D-04  0.00D+00 EMaxC= 1.00D-01 BMatC= 6.14D-06 BMatP= 2.98D-04
 IDIUse=3 WtCom= 9.97D-01 WtEn= 3.04D-03
 Coeff-Com: -0.606D-02 0.107D-01 0.765D-01 0.189D+00 0.730D+00
 Coeff-En:   0.000D+00 0.000D+00 0.000D+00 0.000D+00 0.100D+01
 Coeff:     -0.604D-02 0.107D-01 0.763D-01 0.188D+00 0.731D+00
 Gap=     0.280 Goal=   None    Shift=    0.000
 RMSDP=1.75D-05 MaxDP=3.28D-04 DE=-2.07D-04 OVMax= 4.12D-04

 Cycle   6  Pass 1  IDiag  1:
 E= -277.130846580443     Delta-E=       -0.000004312528 Rises=F Damp=F
 DIIS: error= 5.90D-06 at cycle   6 NSaved=   6.
 NSaved= 6 IEnMin= 6 EnMin= -277.130846580443     IErMin= 6 ErrMin= 5.90D-06
 ErrMax= 5.90D-06  0.00D+00 EMaxC= 1.00D-01 BMatC= 3.19D-09 BMatP= 6.14D-06
 IDIUse=1 WtCom= 1.00D+00 WtEn= 0.00D+00
 Coeff-Com:  0.586D-04-0.549D-03 0.131D-02 0.693D-02 0.342D-01 0.958D+00
 Coeff:      0.586D-04-0.549D-03 0.131D-02 0.693D-02 0.342D-01 0.958D+00
 Gap=     0.280 Goal=   None    Shift=    0.000
 RMSDP=1.26D-06 MaxDP=2.56D-05 DE=-4.31D-06 OVMax= 1.81D-05

 Cycle   7  Pass 1  IDiag  1:
 E= -277.130846583923     Delta-E=       -0.000000003480 Rises=F Damp=F
 DIIS: error= 1.33D-06 at cycle   7 NSaved=   7.
 NSaved= 7 IEnMin= 7 EnMin= -277.130846583923     IErMin= 7 ErrMin= 1.33D-06
 ErrMax= 1.33D-06  0.00D+00 EMaxC= 1.00D-01 BMatC= 1.41D-10 BMatP= 3.19D-09
 IDIUse=1 WtCom= 1.00D+00 WtEn= 0.00D+00
 Coeff-Com:  0.760D-04-0.174D-03-0.833D-03-0.136D-02-0.662D-02 0.927D-01
 Coeff-Com:  0.916D+00
 Coeff:      0.760D-04-0.174D-03-0.833D-03-0.136D-02-0.662D-02 0.927D-01
 Coeff:      0.916D+00
 Gap=     0.280 Goal=   None    Shift=    0.000
 RMSDP=1.47D-07 MaxDP=2.14D-06 DE=-3.48D-09 OVMax= 3.15D-06

 Cycle   8  Pass 1  IDiag  1:
 E= -277.130846584034     Delta-E=       -0.000000000111 Rises=F Damp=F
 DIIS: error= 1.41D-07 at cycle   8 NSaved=   8.
 NSaved= 8 IEnMin= 8 EnMin= -277.130846584034     IErMin= 8 ErrMin= 1.41D-07
 ErrMax= 1.41D-07  0.00D+00 EMaxC= 1.00D-01 BMatC= 1.70D-12 BMatP= 1.41D-10
 IDIUse=1 WtCom= 1.00D+00 WtEn= 0.00D+00
 Coeff-Com:  0.752D-05-0.102D-04-0.128D-03-0.261D-03-0.127D-02-0.552D-02
 Coeff-Com:  0.876D-01 0.920D+00
 Coeff:      0.752D-05-0.102D-04-0.128D-03-0.261D-03-0.127D-02-0.552D-02
 Coeff:      0.876D-01 0.920D+00
 Gap=     0.280 Goal=   None    Shift=    0.000
 RMSDP=2.61D-08 MaxDP=4.74D-07 DE=-1.11D-10 OVMax= 3.80D-07

 Cycle   9  Pass 1  IDiag  1:
 E= -277.130846584035     Delta-E=       -0.000000000001 Rises=F Damp=F
 DIIS: error= 2.58D-08 at cycle   9 NSaved=   9.
 NSaved= 9 IEnMin= 9 EnMin= -277.130846584035     IErMin= 9 ErrMin= 2.58D-08
 ErrMax= 2.58D-08  0.00D+00 EMaxC= 1.00D-01 BMatC= 3.36D-14 BMatP= 1.70D-12
 IDIUse=1 WtCom= 1.00D+00 WtEn= 0.00D+00
 Coeff-Com:  0.113D-07 0.682D-06-0.933D-06-0.119D-04-0.128D-04-0.150D-02
 Coeff-Com: -0.792D-02 0.708D-01 0.939D+00
 Coeff:      0.113D-07 0.682D-06-0.933D-06-0.119D-04-0.128D-04-0.150D-02
 Coeff:     -0.792D-02 0.708D-01 0.939D+00
 Gap=     0.280 Goal=   None    Shift=    0.000
 RMSDP=2.62D-09 MaxDP=3.51D-08 DE=-1.25D-12 OVMax= 6.41D-08

 Error on total polarization charges =  0.01356
 SCF Done:  E(RB3LYP) =  -277.130846584     A.U. after    9 cycles
            NFock=  9  Conv=0.26D-08     -V/T= 2.0024
 KE= 2.764726289116D+02 PE=-8.839212972777D+02 EE= 2.169961643253D+02
 SMD-CDS (non-electrostatic) energy       (kcal/mol) =       4.24
 (included in total energy above)
 Leave Link  502 at Thu Jul 10 14:46:25 2025, MaxMem=  2684354560 cpu:              26.7 elap:               1.5
 (Enter /apps/gaussian/g16c01/g16/l601.exe)
 Copying SCF densities to generalized density rwf, IOpCl= 0 IROHF=0.

 **********************************************************************

            Population analysis using the SCF Density.

 **********************************************************************

 Orbital symmetries:
       Occupied  (A) (A) (A) (A) (A) (A) (A) (A) (A) (A) (A) (A)
                 (A) (A) (A) (A)
       Virtual   (A) (A) (A) (A) (A) (A) (A) (A) (A) (A) (A) (A)
                 (A) (A) (A) (A) (A) (A) (A) (A) (A) (A) (A) (A)
                 (A) (A) (A) (A) (A) (A) (A) (A) (A) (A) (A) (A)
                 (A) (A) (A) (A) (A) (A) (A) (A) (A) (A) (A) (A)
                 (A) (A) (A) (A) (A) (A) (A) (A) (A) (A) (A) (A)
                 (A) (A)
 The electronic state is 1-A.
 Alpha  occ. eigenvalues --  -24.68550 -24.68549 -10.25154 -10.25066  -1.23463
 Alpha  occ. eigenvalues --   -1.22185  -0.77893  -0.62024  -0.55127  -0.54094
 Alpha  occ. eigenvalues --   -0.48092  -0.48032  -0.45108  -0.40588  -0.37721
 Alpha  occ. eigenvalues --   -0.26116
 Alpha virt. eigenvalues --    0.01921   0.05711   0.09192   0.11332   0.21718
 Alpha virt. eigenvalues --    0.32312   0.35744   0.38202   0.39677   0.47225
 Alpha virt. eigenvalues --    0.48023   0.50768   0.60775   0.62872   0.65802
 Alpha virt. eigenvalues --    0.77726   0.90958   0.95607   1.00139   1.04010
 Alpha virt. eigenvalues --    1.12335   1.13282   1.18417   1.24891   1.31738
 Alpha virt. eigenvalues --    1.49931   1.51581   1.59143   1.67689   1.72099
 Alpha virt. eigenvalues --    1.74193   1.89323   2.06298   2.12474   2.24648
 Alpha virt. eigenvalues --    2.51044   2.62698   2.75291   2.95061   3.02725
 Alpha virt. eigenvalues --    3.17632   3.49337   3.77553   3.78412   3.79007
 Alpha virt. eigenvalues --    3.82023   3.94814   3.95032   4.00650   4.18738
 Alpha virt. eigenvalues --    4.57877   4.78302   6.02984   6.07662   6.10771
 Alpha virt. eigenvalues --    6.20099   6.33189   6.55788  23.24327  24.17307
 Alpha virt. eigenvalues --   66.68486  66.74006
          Condensed to atoms (all electrons):
               1          2          3          4          5          6
     1  C    4.958881   0.518299   0.376713   0.267194  -0.044046  -0.055357
     2  C    0.518299   4.958881  -0.055357  -0.044046   0.267194   0.376713
     3  H    0.376713  -0.055357   0.445412  -0.031695   0.002183   0.001154
     4  F    0.267194  -0.044046  -0.031695   9.044921   0.001350   0.002183
     5  F   -0.044046   0.267194   0.002183   0.001350   9.044921  -0.031695
     6  H   -0.055357   0.376713   0.001154   0.002183  -0.031695   0.445412
 Mulliken charges:
               1
     1  C   -0.021683
     2  C   -0.021683
     3  H    0.261591
     4  F   -0.239908
     5  F   -0.239908
     6  H    0.261591
 Sum of Mulliken charges =  -0.00000
 Mulliken charges with hydrogens summed into heavy atoms:
               1
     1  C    0.239908
     2  C    0.239908
     4  F   -0.239908
     5  F   -0.239908
 Electronic spatial extent (au):  <R**2>=            249.3950
 Charge=             -0.0000 electrons
 Dipole moment (field-independent basis, Debye):
    X=              0.0000    Y=              3.1012    Z=              0.0000  Tot=              3.1012
 Quadrupole moment (field-independent basis, Debye-Ang):
   XX=            -22.0971   YY=            -18.9074   ZZ=            -22.4266
   XY=              0.0000   XZ=              0.0000   YZ=              0.0000
 Traceless Quadrupole moment (field-independent basis, Debye-Ang):
   XX=             -0.9534   YY=              2.2363   ZZ=             -1.2829
   XY=              0.0000   XZ=              0.0000   YZ=              0.0000
 Octapole moment (field-independent basis, Debye-Ang**2):
  XXX=              0.0000  YYY=             -2.7201  ZZZ=             -0.0004  XYY=             -0.0000
  XXY=              3.8208  XXZ=              0.0000  XZZ=              0.0000  YZZ=             -3.8682
  YYZ=              0.0000  XYZ=              0.0000
 Hexadecapole moment (field-independent basis, Debye-Ang**3):
 XXXX=           -168.2459 YYYY=            -64.1337 ZZZZ=            -19.8674 XXXY=              0.0000
 XXXZ=             -0.0004 YYYX=              0.0000 YYYZ=             -0.0005 ZZZX=             -0.0004
 ZZZY=             -0.0008 XXYY=            -34.0486 XXZZ=            -30.9575 YYZZ=            -16.5931
 XXYZ=             -0.0002 YYXZ=             -0.0001 ZZXY=              0.0000
 N-N= 1.133216574568D+02 E-N=-8.839212978444D+02  KE= 2.764726289116D+02
 No NMR shielding tensors so no spin-rotation constants.
 Leave Link  601 at Thu Jul 10 14:46:26 2025, MaxMem=  2684354560 cpu:               3.8 elap:               0.2
 (Enter /apps/gaussian/g16c01/g16/l701.exe)
 ... and contract with generalized density number  0.
 Compute integral first derivatives.
 R6Disp: Adding Grimme-D3(BJ) dispersion energy 1st derivatives to the gradient.
 D1PCM: PCM CHGder 1st derivatives, ID1Alg=3 FixD1E=F DoIter=F DoCFld=F I1PDM=0.
 GePol: Maximum number of non-zero 1st derivatives   =     193
 Leave Link  701 at Thu Jul 10 14:46:26 2025, MaxMem=  2684354560 cpu:               7.3 elap:               0.4
 (Enter /apps/gaussian/g16c01/g16/l702.exe)
 L702 exits ... SP integral derivatives will be done elsewhere.
 Leave Link  702 at Thu Jul 10 14:46:26 2025, MaxMem=  2684354560 cpu:               0.7 elap:               0.1
 (Enter /apps/gaussian/g16c01/g16/l703.exe)
 Integral derivatives from FoFJK, PRISM(SPDF).
 Compute integral first derivatives, UseDBF=F ICtDFT=           0.
 Calling FoFJK, ICntrl=      2127 FMM=F ISym2X=0 I1Cent= 0 IOpClX= 0 NMat=1 NMatS=1 NMatT=0.
 FoFJK:  IHMeth= 1 ICntrl=    2127 DoSepK=F KAlg= 0 I1Cent=           0 FoldK=F
 IRaf=         0 NMat=       1 IRICut=       1 DoRegI=T DoRafI=F ISym2E= 0 IDoP0=0 IntGTp=1.
 FoFCou: FMM=F IPFlag=           0 FMFlag=      100000 FMFlg1=         800
         NFxFlg=           0 DoJE=F BraDBF=F KetDBF=F FulRan=T
         wScrn=  0.000000 ICntrl=      2127 IOpCl=  0 I1Cent=           0 NGrid=           0
         NMat0=    1 NMatS0=      1 NMatT0=    0 NMatD0=    1 NMtDS0=    0 NMtDT0=    0
 Symmetry not used in FoFCou.
 Leave Link  703 at Thu Jul 10 14:46:27 2025, MaxMem=  2684354560 cpu:               8.7 elap:               0.6
 (Enter /apps/gaussian/g16c01/g16/l716.exe)
 Dipole        = 7.81737786D-10 1.22011150D+00 1.74079172D-05
 ***** Axes restored to original set *****
 -------------------------------------------------------------------
 Center     Atomic                   Forces (Hartrees/Bohr)
 Number     Number              X              Y              Z
 -------------------------------------------------------------------
      1        6          -0.000058604    0.000035004   -0.000001450
      2        6           0.000058604    0.000035004   -0.000001274
      3        1          -0.000026320   -0.000076948    0.000000773
      4        9           0.000076898    0.000041945    0.000000628
      5        9          -0.000076898    0.000041945    0.000000562
      6        1           0.000026320   -0.000076948    0.000000761
 -------------------------------------------------------------------
 Cartesian Forces:  Max     0.000076948 RMS     0.000045885
 Leave Link  716 at Thu Jul 10 14:46:27 2025, MaxMem=  2684354560 cpu:               0.9 elap:               0.1
 (Enter /apps/gaussian/g16c01/g16/l103.exe)

 GradGradGradGradGradGradGradGradGradGradGradGradGradGradGradGradGradGrad
 Berny optimization.
 FormGI is forming the generalized inverse of G from B-inverse, IUseBI=4.
 Internal  Forces:  Max     0.000124897 RMS     0.000070953
 Search for a local minimum.
 Step number   1 out of a maximum of   25
 All quantities printed in internal units (Hartrees-Bohrs-Radians)
 RMS Force = .70953D-04 SwitMx=.10000D-02 MixMth= 2
 Mixed Optimization -- En-DIIS/RFO-DIIS
 Second derivative matrix not updated -- first step.
 The second derivative matrix:
                          R1        R2        R3        R4        R5
           R1           0.61636
           R2           0.00000   0.35884
           R3           0.00000   0.00000   0.54555
           R4           0.00000   0.00000   0.00000   0.54555
           R5           0.00000   0.00000   0.00000   0.00000   0.35884
           A1           0.00000   0.00000   0.00000   0.00000   0.00000
           A2           0.00000   0.00000   0.00000   0.00000   0.00000
           A3           0.00000   0.00000   0.00000   0.00000   0.00000
           A4           0.00000   0.00000   0.00000   0.00000   0.00000
           A5           0.00000   0.00000   0.00000   0.00000   0.00000
           A6           0.00000   0.00000   0.00000   0.00000   0.00000
           D1           0.00000   0.00000   0.00000   0.00000   0.00000
           D2           0.00000   0.00000   0.00000   0.00000   0.00000
           D3           0.00000   0.00000   0.00000   0.00000   0.00000
           D4           0.00000   0.00000   0.00000   0.00000   0.00000
                          A1        A2        A3        A4        A5
           A1           0.16000
           A2           0.00000   0.25000
           A3           0.00000   0.00000   0.16000
           A4           0.00000   0.00000   0.00000   0.25000
           A5           0.00000   0.00000   0.00000   0.00000   0.16000
           A6           0.00000   0.00000   0.00000   0.00000   0.00000
           D1           0.00000   0.00000   0.00000   0.00000   0.00000
           D2           0.00000   0.00000   0.00000   0.00000   0.00000
           D3           0.00000   0.00000   0.00000   0.00000   0.00000
           D4           0.00000   0.00000   0.00000   0.00000   0.00000
                          A6        D1        D2        D3        D4
           A6           0.16000
           D1           0.00000   0.03131
           D2           0.00000   0.00000   0.03131
           D3           0.00000   0.00000   0.00000   0.03131
           D4           0.00000   0.00000   0.00000   0.00000   0.03131
 ITU=  0
     Eigenvalues ---    0.03131   0.03131   0.03131   0.16000   0.16000
     Eigenvalues ---    0.22000   0.22000   0.35884   0.35884   0.54555
     Eigenvalues ---    0.54555   0.61636
 RFO step:  Lambda=-3.32883792D-07 EMin= 3.13126102D-02
 Linear search not attempted -- first point.
 Iteration  1 RMS(Cart)=  0.00064244 RMS(Int)=  0.00000022
 Iteration  2 RMS(Cart)=  0.00000022 RMS(Int)=  0.00000000
 ITry= 1 IFail=0 DXMaxC= 1.23D-03 DCOld= 1.00D+10 DXMaxT= 3.00D-01 DXLimC= 3.00D+00 Rises=F
 Variable       Old X    -DE/DX   Delta X   Delta X   Delta X     New X
                                 (Linear)    (Quad)   (Total)
    R1        2.49669   0.00001   0.00000   0.00001   0.00001   2.49670
    R2        2.04263  -0.00005   0.00000  -0.00014  -0.00014   2.04249
    R3        2.55529  -0.00008   0.00000  -0.00014  -0.00014   2.55515
    R4        2.55529  -0.00008   0.00000  -0.00014  -0.00014   2.55515
    R5        2.04263  -0.00005   0.00000  -0.00014  -0.00014   2.04249
    A1        2.16123   0.00012   0.00000   0.00068   0.00068   2.16191
    A2        2.12662  -0.00012   0.00000  -0.00053  -0.00053   2.12608
    A3        1.99534  -0.00001   0.00000  -0.00015  -0.00015   1.99519
    A4        2.12662  -0.00012   0.00000  -0.00053  -0.00053   2.12608
    A5        2.16123   0.00012   0.00000   0.00068   0.00068   2.16191
    A6        1.99534  -0.00001   0.00000  -0.00015  -0.00015   1.99519
    D1       -3.14157  -0.00000   0.00000  -0.00004  -0.00004   3.14158
    D2        0.00000  -0.00000   0.00000  -0.00000  -0.00000  -0.00000
    D3       -0.00000   0.00000   0.00000   0.00000   0.00000   0.00000
    D4        3.14157   0.00000   0.00000   0.00004   0.00004  -3.14158
         Item               Value     Threshold  Converged?
 Maximum Force            0.000125     0.000450     YES
 RMS     Force            0.000071     0.000300     YES
 Maximum Displacement     0.001228     0.001800     YES
 RMS     Displacement     0.000642     0.001200     YES
 Predicted change in Energy=-1.664419D-07
 Optimization completed.
    -- Stationary point found.
                           ----------------------------
                           !   Optimized Parameters   !
                           ! (Angstroms and Degrees)  !
 --------------------------                            --------------------------
 ! Name  Definition              Value          Derivative Info.                !
 --------------------------------------------------------------------------------
 ! R1    R(1,2)                  1.3212         -DE/DX =    0.0                 !
 ! R2    R(1,3)                  1.0809         -DE/DX =    0.0                 !
 ! R3    R(1,4)                  1.3522         -DE/DX =   -0.0001              !
 ! R4    R(2,5)                  1.3522         -DE/DX =   -0.0001              !
 ! R5    R(2,6)                  1.0809         -DE/DX =    0.0                 !
 ! A1    A(2,1,3)              123.8294         -DE/DX =    0.0001              !
 ! A2    A(2,1,4)              121.8462         -DE/DX =   -0.0001              !
 ! A3    A(3,1,4)              114.3245         -DE/DX =    0.0                 !
 ! A4    A(1,2,5)              121.8462         -DE/DX =   -0.0001              !
 ! A5    A(1,2,6)              123.8294         -DE/DX =    0.0001              !
 ! A6    A(5,2,6)              114.3245         -DE/DX =    0.0                 !
 ! D1    D(3,1,2,5)            180.0014         -DE/DX =    0.0                 !
 ! D2    D(3,1,2,6)              0.0            -DE/DX =    0.0                 !
 ! D3    D(4,1,2,5)             -0.0001         -DE/DX =    0.0                 !
 ! D4    D(4,1,2,6)           -180.0015         -DE/DX =    0.0                 !
 --------------------------------------------------------------------------------
 Lowest energy point so far.  Saving SCF results.
 Largest change from initial coordinates is atom    0       0.000 Angstoms.
 GradGradGradGradGradGradGradGradGradGradGradGradGradGradGradGradGradGrad

 Leave Link  103 at Thu Jul 10 14:46:28 2025, MaxMem=  2684354560 cpu:              10.2 elap:               0.8
 (Enter /apps/gaussian/g16c01/g16/l202.exe)
                          Input orientation:                          
 ---------------------------------------------------------------------
 Center     Atomic      Atomic             Coordinates (Angstroms)
 Number     Number       Type             X           Y           Z
 ---------------------------------------------------------------------
      1          6           0       -0.660595    0.589998    0.000015
      2          6           0        0.660595    0.589998    0.000022
      3          1           0       -1.262362    1.487911    0.000015
      4          9           0       -1.374072   -0.558655   -0.000023
      5          9           0        1.374072   -0.558655   -0.000007
      6          1           0        1.262362    1.487911    0.000029
 ---------------------------------------------------------------------
                    Distance matrix (angstroms):
                    1          2          3          4          5
     1  C    0.000000
     2  C    1.321190   0.000000
     3  H    1.080912   2.122266   0.000000
     4  F    1.352203   2.336509   2.049613   0.000000
     5  F    2.336509   1.352203   3.337546   2.748144   0.000000
     6  H    2.122266   1.080912   2.524724   3.337546   2.049613
                    6
     6  H    0.000000
 Stoichiometry    C2H2F2
 Framework group  C1[X(C2H2F2)]
 Deg. of freedom    12
 Full point group                 C1      NOp   1
 RotChk:  IX=0 Diff= 0.00D+00
 Largest Abelian subgroup         C1      NOp   1
 Largest concise Abelian subgroup C1      NOp   1
                         Standard orientation:                         
 ---------------------------------------------------------------------
 Center     Atomic      Atomic             Coordinates (Angstroms)
 Number     Number       Type             X           Y           Z
 ---------------------------------------------------------------------
      1          6           0       -0.660595    0.589998    0.000015
      2          6           0        0.660595    0.589998    0.000022
      3          1           0       -1.262362    1.487911    0.000015
      4          9           0       -1.374072   -0.558655   -0.000023
      5          9           0        1.374072   -0.558655   -0.000007
      6          1           0        1.262362    1.487911    0.000029
 ---------------------------------------------------------------------
 Rotational constants (GHZ):          20.6979609           5.9159796           4.6009239
 Leave Link  202 at Thu Jul 10 14:46:28 2025, MaxMem=  2684354560 cpu:               0.5 elap:               0.0
 (Enter /apps/gaussian/g16c01/g16/l9999.exe)
 Unable to Open any file for archive entry.
 1\1\GINC-GADI-CPU-CLX-1892\FOpt\RB3LYP\6-311G(d)\C2H2F2\YR9300\10-Jul-
 2025\0\\#p opt freq b3lyp/6-311g(d) scrf=(smd,solvent=water) em=gd3bj\
 \H2F2_wat_M05-2x\\0,1\C,-0.660595,0.589998,0.000015\C,0.660595,0.58999
 8,0.000022\H,-1.262362,1.487911,0.000015\F,-1.374072,-0.558655,-0.0000
 23\F,1.374072,-0.558655,-0.000007\H,1.262362,1.487911,0.000029\\Versio
 n=ES64L-G16RevC.01\State=1-A\HF=-277.1308466\RMSD=2.617e-09\RMSF=4.588
 e-05\Dipole=0.,1.2201115,0.0000174\Quadrupole=-0.7088631,1.6626441,-0.
 953781,0.,0.0000006,0.0000172\PG=C01 [X(C2H2F2)]\\@
 The archive entry for this job was punched.


 IT TAKES GREATER CHARACTER TO CARRY OFF GOOD FORTUNE THAN BAD.
                     FRENCH PROVERB.
 Leave Link 9999 at Thu Jul 10 14:46:28 2025, MaxMem=  2684354560 cpu:               0.8 elap:               0.1
 Job cpu time:       0 days  0 hours  1 minutes 21.8 seconds.
 Elapsed time:       0 days  0 hours  0 minutes  5.4 seconds.
 File lengths (MBytes):  RWF=     13 Int=      0 D2E=      0 Chk=      2 Scr=      1
 Normal termination of Gaussian 16 at Thu Jul 10 14:46:28 2025.
 (Enter /apps/gaussian/g16c01/g16/l1.exe)
 Link1:  Proceeding to internal job step number  2.
 ---------------------------------------------------------------------
 #P Geom=AllCheck Guess=TCheck SCRF=Check GenChk RB3LYP/6-311G(d) Freq
 ---------------------------------------------------------------------
 1/10=4,29=7,30=1,38=1,40=1/1,3;
 2/12=2,40=1/2;
 3/5=4,6=6,7=1,11=2,14=-4,25=1,30=1,70=2,71=2,74=-5,116=1,124=41,140=1/1,2,3;
 4/5=101/1;
 5/5=2,38=6,98=1/2;
 8/6=4,10=90,11=11/1;
 11/6=1,8=1,9=11,15=111,16=1/1,2,10;
 10/6=1/2;
 6/7=2,8=2,9=2,10=2,28=1/1;
 7/8=1,10=1,25=1/1,2,3,16;
 1/10=4,30=1/3;
 99//99;
 Leave Link    1 at Thu Jul 10 14:46:28 2025, MaxMem=  2684354560 cpu:               0.3 elap:               0.0
 (Enter /apps/gaussian/g16c01/g16/l101.exe)
 Structure from the checkpoint file:  "H2F2_wat_M05-2x.chk"
 ---------------
 H2F2_wat_M05-2x
 ---------------
 Charge =  0 Multiplicity = 1
 Redundant internal coordinates found in file.  (old form).
 C,0,-0.660595,0.589998,0.000015
 C,0,0.660595,0.589998,0.000022
 H,0,-1.262362,1.487911,0.000015
 F,0,-1.374072,-0.558655,-0.000023
 F,0,1.374072,-0.558655,-0.000007
 H,0,1.262362,1.487911,0.000029
 Recover connectivity data from disk.
 ITRead=  0  0  0  0  0  0
 MicOpt= -1 -1 -1 -1 -1 -1
 NAtoms=      6 NQM=        6 NQMF=       0 NMMI=      0 NMMIF=      0
                NMic=       0 NMicF=      0.
                    Isotopes and Nuclear Properties:
 (Nuclear quadrupole moments (NQMom) in fm**2, nuclear magnetic moments (NMagM)
  in nuclear magnetons)

  Atom         1           2           3           4           5           6
 IAtWgt=          12          12           1          19          19           1
 AtmWgt=  12.0000000  12.0000000   1.0078250  18.9984033  18.9984033   1.0078250
 NucSpn=           0           0           1           1           1           1
 AtZEff=   3.6000000   3.6000000   1.0000000   6.7500000   6.7500000   1.0000000
 NQMom=    0.0000000   0.0000000   0.0000000   0.0000000   0.0000000   0.0000000
 NMagM=    0.0000000   0.0000000   2.7928460   2.6288670   2.6288670   2.7928460
 AtZNuc=   6.0000000   6.0000000   1.0000000   9.0000000   9.0000000   1.0000000
 Leave Link  101 at Thu Jul 10 14:46:28 2025, MaxMem=  2684354560 cpu:               9.2 elap:               0.6
 (Enter /apps/gaussian/g16c01/g16/l103.exe)

 GradGradGradGradGradGradGradGradGradGradGradGradGradGradGradGradGradGrad
 Berny optimization.
 Initialization pass.
                           ----------------------------
                           !    Initial Parameters    !
                           ! (Angstroms and Degrees)  !
 --------------------------                            --------------------------
 ! Name  Definition              Value          Derivative Info.                !
 --------------------------------------------------------------------------------
 ! R1    R(1,2)                  1.3212         calculate D2E/DX2 analytically  !
 ! R2    R(1,3)                  1.0809         calculate D2E/DX2 analytically  !
 ! R3    R(1,4)                  1.3522         calculate D2E/DX2 analytically  !
 ! R4    R(2,5)                  1.3522         calculate D2E/DX2 analytically  !
 ! R5    R(2,6)                  1.0809         calculate D2E/DX2 analytically  !
 ! A1    A(2,1,3)              123.8294         calculate D2E/DX2 analytically  !
 ! A2    A(2,1,4)              121.8462         calculate D2E/DX2 analytically  !
 ! A3    A(3,1,4)              114.3245         calculate D2E/DX2 analytically  !
 ! A4    A(1,2,5)              121.8462         calculate D2E/DX2 analytically  !
 ! A5    A(1,2,6)              123.8294         calculate D2E/DX2 analytically  !
 ! A6    A(5,2,6)              114.3245         calculate D2E/DX2 analytically  !
 ! D1    D(3,1,2,5)           -179.9986         calculate D2E/DX2 analytically  !
 ! D2    D(3,1,2,6)              0.0            calculate D2E/DX2 analytically  !
 ! D3    D(4,1,2,5)             -0.0001         calculate D2E/DX2 analytically  !
 ! D4    D(4,1,2,6)            179.9985         calculate D2E/DX2 analytically  !
 --------------------------------------------------------------------------------
 Trust Radius=3.00D-01 FncErr=1.00D-07 GrdErr=1.00D-07 EigMax=2.50D+02 EigMin=1.00D-04
 Number of steps in this run=      2 maximum allowed number of steps=      2.
 GradGradGradGradGradGradGradGradGradGradGradGradGradGradGradGradGradGrad

 Leave Link  103 at Thu Jul 10 14:46:28 2025, MaxMem=  2684354560 cpu:               0.8 elap:               0.1
 (Enter /apps/gaussian/g16c01/g16/l202.exe)
                          Input orientation:                          
 ---------------------------------------------------------------------
 Center     Atomic      Atomic             Coordinates (Angstroms)
 Number     Number       Type             X           Y           Z
 ---------------------------------------------------------------------
      1          6           0       -0.660595    0.589998    0.000015
      2          6           0        0.660595    0.589998    0.000022
      3          1           0       -1.262362    1.487911    0.000015
      4          9           0       -1.374072   -0.558655   -0.000023
      5          9           0        1.374072   -0.558655   -0.000007
      6          1           0        1.262362    1.487911    0.000029
 ---------------------------------------------------------------------
                    Distance matrix (angstroms):
                    1          2          3          4          5
     1  C    0.000000
     2  C    1.321190   0.000000
     3  H    1.080912   2.122266   0.000000
     4  F    1.352203   2.336509   2.049613   0.000000
     5  F    2.336509   1.352203   3.337546   2.748144   0.000000
     6  H    2.122266   1.080912   2.524724   3.337546   2.049613
                    6
     6  H    0.000000
 Stoichiometry    C2H2F2
 Framework group  C1[X(C2H2F2)]
 Deg. of freedom    12
 Full point group                 C1      NOp   1
 RotChk:  IX=0 Diff= 0.00D+00
 Largest Abelian subgroup         C1      NOp   1
 Largest concise Abelian subgroup C1      NOp   1
                         Standard orientation:                         
 ---------------------------------------------------------------------
 Center     Atomic      Atomic             Coordinates (Angstroms)
 Number     Number       Type             X           Y           Z
 ---------------------------------------------------------------------
      1          6           0       -0.660595    0.589998    0.000015
      2          6           0        0.660595    0.589998    0.000022
      3          1           0       -1.262362    1.487911    0.000015
      4          9           0       -1.374072   -0.558655   -0.000023
      5          9           0        1.374072   -0.558655   -0.000007
      6          1           0        1.262362    1.487911    0.000029
 ---------------------------------------------------------------------
 Rotational constants (GHZ):          20.6979609           5.9159796           4.6009239
 Leave Link  202 at Thu Jul 10 14:46:28 2025, MaxMem=  2684354560 cpu:               0.9 elap:               0.1
 (Enter /apps/gaussian/g16c01/g16/l301.exe)
 Standard basis: 6-311G(d) (5D, 7F)
 Ernie: Thresh=  0.10000D-02 Tol=  0.10000D-05 Strict=F.
 There are    82 symmetry adapted cartesian basis functions of A   symmetry.
 There are    78 symmetry adapted basis functions of A   symmetry.
    78 basis functions,   138 primitive gaussians,    82 cartesian basis functions
    16 alpha electrons       16 beta electrons
       nuclear repulsion energy       113.3193582743 Hartrees.
 IExCor=  402 DFT=T Ex+Corr=B3LYP ExCW=0 ScaHFX=  0.200000
 ScaDFX=  0.800000  0.720000  1.000000  0.810000 ScalE2=  1.000000  1.000000
 IRadAn=      5 IRanWt=     -1 IRanGd=            0 ICorTp=0 IEmpDi=141
 NAtoms=    6 NActive=    6 NUniq=    6 SFac= 1.00D+00 NAtFMM=   60 NAOKFM=F Big=F
 Integral buffers will be    131072 words long.
 Raffenetti 2 integral format.
 Two-electron integral symmetry is turned on.
 R6Disp:  Grimme-D3(BJ) Dispersion energy=       -0.0044621108 Hartrees.
 Nuclear repulsion after empirical dispersion term =      113.3148961635 Hartrees.
 Force inversion solution in PCM.
 ------------------------------------------------------------------------------
 Polarizable Continuum Model (PCM)
 =================================
 Model                : PCM.
 Atomic radii         : SMD-Coulomb.
 Polarization charges : Total charges.
 Charge compensation  : None.
 Solution method      : Matrix inversion.
 Cavity type          : VdW (van der Waals Surface) (Alpha=1.000).
 Cavity algorithm     : GePol (No added spheres)
                        Default sphere list used, NSphG=    6.
                        Lebedev-Laikov grids with approx.  5.0 points / Ang**2.
                        Smoothing algorithm: York/Karplus (Gamma=1.0000).
                        Polarization charges: spherical gaussians, with
                                              point-specific exponents (IZeta= 3).
                        Self-potential: point-specific (ISelfS= 7).
                        Self-field    : sphere-specific E.n sum rule (ISelfD= 2).
 1st derivatives      : Analytical E(r).r(x)/FMM algorithm (CHGder, D1EAlg=3).
                        Cavity 1st derivative terms included.
 2nd derivatives      : Analytical E(r).r(xy)/FMM algorithm (CHGder, D2EAlg=3).
                        Cavity 2nd derivative terms included.
 Solvent              : Water, Eps=  78.355300 Eps(inf)=   1.777849
 ------------------------------------------------------------------------------
 Spheres list:
 ISph  on   Nord     Re0    Alpha      Xe            Ye            Ze
    1   C      1    1.8500  1.000     -0.660595      0.589998      0.000015
    2   C      2    1.8500  1.000      0.660595      0.589998      0.000022
    3   H      3    1.2000  1.000     -1.262362      1.487911      0.000015
    4   F      4    1.7300  1.000     -1.374072     -0.558655     -0.000023
    5   F      5    1.7300  1.000      1.374072     -0.558655     -0.000007
    6   H      6    1.2000  1.000      1.262362      1.487911      0.000029
 ------------------------------------------------------------------------------
 GePol: Number of generator spheres                  =       6
 GePol: Total number of spheres                      =       6
 GePol: Number of exposed spheres                    =       6 (100.00%)
 GePol: Number of points                             =     624
 GePol: Average weight of points                     =       0.14
 GePol: Minimum weight of points                     =   0.23D-09
 GePol: Maximum weight of points                     =    0.21501
 GePol: Number of points with low weight             =      22
 GePol: Fraction of low-weight points (<1% of avg)   =       3.53%
 GePol: Cavity surface area                          =     84.765 Ang**2
 GePol: Cavity volume                                =     63.110 Ang**3
 ------------------------------------------------------------------------------
 Atomic radii for non-electrostatic terms: SMD-CDS.
 ------------------------------------------------------------------------------
 PCM non-electrostatic energy =         0.0067612933 Hartrees.
 Nuclear repulsion after PCM non-electrostatic terms =      113.3216574568 Hartrees.
 Leave Link  301 at Thu Jul 10 14:46:29 2025, MaxMem=  2684354560 cpu:               1.1 elap:               0.1
 (Enter /apps/gaussian/g16c01/g16/l302.exe)
 NPDir=0 NMtPBC=     1 NCelOv=     1 NCel=       1 NClECP=     1 NCelD=      1
         NCelK=      1 NCelE2=     1 NClLst=     1 CellRange=     0.0.
 One-electron integrals computed using PRISM.
 One-electron integral symmetry used in STVInt
 NBasis=    78 RedAO= T EigKep=  3.12D-03  NBF=    78
 NBsUse=    78 1.00D-06 EigRej= -1.00D+00 NBFU=    78
 Precomputing XC quadrature grid using
 IXCGrd= 4 IRadAn=           5 IRanWt=          -1 IRanGd=           0 AccXCQ= 0.00D+00.
 Generated NRdTot=       0 NPtTot=           0 NUsed=           0 NTot=          32
 NSgBfM=    82    82    82    82    82 MxSgAt=     6 MxSgA2=     6.
 Leave Link  302 at Thu Jul 10 14:46:29 2025, MaxMem=  2684354560 cpu:               3.1 elap:               0.2
 (Enter /apps/gaussian/g16c01/g16/l303.exe)
 DipDrv:  MaxL=1.
 Leave Link  303 at Thu Jul 10 14:46:29 2025, MaxMem=  2684354560 cpu:               2.7 elap:               0.2
 (Enter /apps/gaussian/g16c01/g16/l401.exe)
 Initial guess from the checkpoint file:  "H2F2_wat_M05-2x.chk"
 B after Tr=     0.000000    0.000000    0.000000
         Rot=    1.000000    0.000000    0.000000    0.000000 Ang=   0.00 deg.
 Guess basis will be translated and rotated to current coordinates.
 JPrj=2 DoOrth=T DoCkMO=T.
 Leave Link  401 at Thu Jul 10 14:46:30 2025, MaxMem=  2684354560 cpu:              10.4 elap:               0.6
 (Enter /apps/gaussian/g16c01/g16/l502.exe)
 Keep R1 ints in memory in canonical form, NReq=22865365.
 FoFCou: FMM=F IPFlag=           0 FMFlag=           0 FMFlg1=           0
         NFxFlg=           0 DoJE=F BraDBF=F KetDBF=F FulRan=T
         wScrn=  0.000000 ICntrl=       600 IOpCl=  0 I1Cent=           0 NGrid=           0
         NMat0=    1 NMatS0=   3081 NMatT0=    0 NMatD0=    1 NMtDS0=    0 NMtDT0=    0
 Symmetry not used in FoFCou.
 Two-electron integral symmetry not used.
 Closed shell SCF:
 Using DIIS extrapolation, IDIIS=  1040.
 NGot=  2684354560 LenX=  2679590577 LenY=  2679583412
 Requested convergence on RMS density matrix=1.00D-08 within 128 cycles.
 Requested convergence on MAX density matrix=1.00D-06.
 Requested convergence on             energy=1.00D-06.
 No special actions if energy rises.

 Cycle   1  Pass 1  IDiag  1:
 Inv3:  Mode=1 IEnd=     1168128.
 Iteration    1 A*A^-1 deviation from unit magnitude is 2.66D-15 for    377.
 Iteration    1 A*A^-1 deviation from orthogonality  is 1.67D-15 for    564    125.
 Iteration    1 A^-1*A deviation from unit magnitude is 2.22D-15 for    213.
 Iteration    1 A^-1*A deviation from orthogonality  is 1.90D-14 for    390    360.
 E= -277.130846584035    
 DIIS: error= 2.79D-09 at cycle   1 NSaved=   1.
 NSaved= 1 IEnMin= 1 EnMin= -277.130846584035     IErMin= 1 ErrMin= 2.79D-09
 ErrMax= 2.79D-09  0.00D+00 EMaxC= 1.00D-01 BMatC= 3.11D-16 BMatP= 3.11D-16
 IDIUse=1 WtCom= 1.00D+00 WtEn= 0.00D+00
 Coeff-Com:  0.100D+01
 Coeff:      0.100D+01
 Gap=     0.280 Goal=   None    Shift=    0.000
 RMSDP=2.40D-10 MaxDP=2.56D-09              OVMax= 5.89D-09

 Error on total polarization charges =  0.01356
 SCF Done:  E(RB3LYP) =  -277.130846584     A.U. after    1 cycles
            NFock=  1  Conv=0.24D-09     -V/T= 2.0024
 KE= 2.764726288917D+02 PE=-8.839212978245D+02 EE= 2.169961648920D+02
 SMD-CDS (non-electrostatic) energy       (kcal/mol) =       4.24
 (included in total energy above)
 Leave Link  502 at Thu Jul 10 14:46:30 2025, MaxMem=  2684354560 cpu:              12.1 elap:               0.7
 (Enter /apps/gaussian/g16c01/g16/l801.exe)
 DoSCS=F DFT=T ScalE2(SS,OS)=  1.000000  1.000000
 Range of M.O.s used for correlation:     1    78
 NBasis=    78 NAE=    16 NBE=    16 NFC=     0 NFV=     0
 NROrb=     78 NOA=    16 NOB=    16 NVA=    62 NVB=    62
 Leave Link  801 at Thu Jul 10 14:46:30 2025, MaxMem=  2684354560 cpu:               0.8 elap:               0.1
 (Enter /apps/gaussian/g16c01/g16/l1101.exe)
 Using compressed storage, NAtomX=     6.
 Will process      7 centers per pass.
 R6Disp: Adding Grimme-D3(BJ) dispersion energy 1st derivatives to the gradient.
 Leave Link 1101 at Thu Jul 10 14:46:31 2025, MaxMem=  2684354560 cpu:               2.3 elap:               0.2
 (Enter /apps/gaussian/g16c01/g16/l1102.exe)
 Symmetrizing basis deriv contribution to polar:
 IMax=3 JMax=2 DiffMx= 0.00D+00
 Leave Link 1102 at Thu Jul 10 14:46:31 2025, MaxMem=  2684354560 cpu:               1.5 elap:               0.2
 (Enter /apps/gaussian/g16c01/g16/l1110.exe)
 Forming Gx(P) for the SCF density, NAtomX=     6.
 Integral derivatives from FoFJK, PRISM(SPDF).
 Do as many integral derivatives as possible in FoFJK.
 G2DrvN: MDV=    2684353818.
 G2DrvN: will do     7 centers at a time, making    1 passes.
 Calling FoFCou, ICntrl=  3107 FMM=F I1Cent=   0 AccDes= 0.00D+00.
 FoFJK:  IHMeth= 1 ICntrl=    3107 DoSepK=F KAlg= 0 I1Cent=           0 FoldK=F
 IRaf=         0 NMat=       1 IRICut=       1 DoRegI=T DoRafI=F ISym2E= 0 IDoP0=0 IntGTp=1.
 FoFCou: FMM=F IPFlag=           0 FMFlag=      100000 FMFlg1=           0
         NFxFlg=           0 DoJE=F BraDBF=F KetDBF=F FulRan=T
         wScrn=  0.000000 ICntrl=      3107 IOpCl=  0 I1Cent=           0 NGrid=           0
         NMat0=    1 NMatS0=      1 NMatT0=    0 NMatD0=    1 NMtDS0=    0 NMtDT0=    0
 Symmetry not used in FoFCou.
 NEqPCM:  Using equilibrium solvation (IEInf=0, Eps=  78.3553, EpsInf=   1.7778)
 G2PCM: DoFxE=T DoFxN=T DoGrad=T DoDP/DQ/DG/TGxP=FFFF NFrqRd=   0 IEInf=0 SqF1=F DoCFld=F IF1Alg=4.
 GePol: Maximum number of non-zero 1st derivatives   =     193
 End of G2Drv F.D. properties file   721 does not exist.
 End of G2Drv F.D. properties file   722 does not exist.
 End of G2Drv F.D. properties file   788 does not exist.
 Leave Link 1110 at Thu Jul 10 14:46:33 2025, MaxMem=  2684354560 cpu:              36.9 elap:               1.9
 (Enter /apps/gaussian/g16c01/g16/l1002.exe)
 Minotr:  Closed shell wavefunction.
          IDoAtm=111111
 NEqPCM:  Using equilibrium solvation (IEInf=0, Eps=  78.3553, EpsInf=   1.7778)
          Direct CPHF calculation.
          Differentiating once with respect to electric field.
                with respect to dipole field.
          Differentiating once with respect to nuclear coordinates.
          Requested convergence is 1.0D-08 RMS, and 1.0D-07 maximum.
          Secondary convergence is 1.0D-12 RMS, and 1.0D-12 maximum.
          NewPWx=T KeepS1=F KeepF1=F KeepIn=T MapXYZ=F SortEE=F KeepMc=T.
         1789 words used for storage of precomputed grid.
 Keep R1 ints in memory in canonical form, NReq=22800838.
 FoFCou: FMM=F IPFlag=           0 FMFlag=           0 FMFlg1=           0
         NFxFlg=           0 DoJE=F BraDBF=F KetDBF=F FulRan=T
         wScrn=  0.000000 ICntrl=       600 IOpCl=  0 I1Cent=           0 NGrid=           0
         NMat0=    1 NMatS0=   3081 NMatT0=    0 NMatD0=    1 NMtDS0=    0 NMtDT0=    0
 Symmetry not used in FoFCou.
 Two-electron integral symmetry not used.
          MDV=    2684354560 using IRadAn=       1.
          Solving linear equations simultaneously, MaxMat=       0.
          There are    21 degrees of freedom in the 1st order CPHF.  IDoFFX=6 NUNeed=     3.
     18 vectors produced by pass  0 Test12= 4.72D-15 4.76D-09 XBig12= 3.28D+01 5.09D+00.
 AX will form    18 AO Fock derivatives at one time.
     18 vectors produced by pass  1 Test12= 4.72D-15 4.76D-09 XBig12= 4.37D+00 5.84D-01.
     18 vectors produced by pass  2 Test12= 4.72D-15 4.76D-09 XBig12= 6.13D-02 6.91D-02.
     18 vectors produced by pass  3 Test12= 4.72D-15 4.76D-09 XBig12= 2.19D-04 5.05D-03.
     18 vectors produced by pass  4 Test12= 4.72D-15 4.76D-09 XBig12= 4.14D-07 2.27D-04.
     16 vectors produced by pass  5 Test12= 4.72D-15 4.76D-09 XBig12= 5.94D-10 4.90D-06.
      3 vectors produced by pass  6 Test12= 4.72D-15 4.76D-09 XBig12= 6.18D-13 1.75D-07.
      1 vectors produced by pass  7 Test12= 4.72D-15 4.76D-09 XBig12= 5.35D-16 5.02D-09.
 InvSVY:  IOpt=1 It=  1 EMax= 2.66D-15
 Solved reduced A of dimension   110 with    21 vectors.
 FullF1:  Do perturbations      1 to       3.
 Isotropic polarizability for W=    0.000000       27.09 Bohr**3.
 End of Minotr F.D. properties file   721 does not exist.
 End of Minotr F.D. properties file   722 does not exist.
 End of Minotr F.D. properties file   788 does not exist.
 Leave Link 1002 at Thu Jul 10 14:46:35 2025, MaxMem=  2684354560 cpu:              31.7 elap:               1.7
 (Enter /apps/gaussian/g16c01/g16/l601.exe)
 Copying SCF densities to generalized density rwf, IOpCl= 0 IROHF=0.

 **********************************************************************

            Population analysis using the SCF Density.

 **********************************************************************

 Orbital symmetries:
       Occupied  (A) (A) (A) (A) (A) (A) (A) (A) (A) (A) (A) (A)
                 (A) (A) (A) (A)
       Virtual   (A) (A) (A) (A) (A) (A) (A) (A) (A) (A) (A) (A)
                 (A) (A) (A) (A) (A) (A) (A) (A) (A) (A) (A) (A)
                 (A) (A) (A) (A) (A) (A) (A) (A) (A) (A) (A) (A)
                 (A) (A) (A) (A) (A) (A) (A) (A) (A) (A) (A) (A)
                 (A) (A) (A) (A) (A) (A) (A) (A) (A) (A) (A) (A)
                 (A) (A)
 The electronic state is 1-A.
 Alpha  occ. eigenvalues --  -24.68550 -24.68549 -10.25154 -10.25066  -1.23463
 Alpha  occ. eigenvalues --   -1.22185  -0.77893  -0.62024  -0.55127  -0.54094
 Alpha  occ. eigenvalues --   -0.48092  -0.48032  -0.45108  -0.40588  -0.37721
 Alpha  occ. eigenvalues --   -0.26116
 Alpha virt. eigenvalues --    0.01921   0.05711   0.09192   0.11332   0.21718
 Alpha virt. eigenvalues --    0.32312   0.35744   0.38202   0.39677   0.47225
 Alpha virt. eigenvalues --    0.48023   0.50768   0.60775   0.62872   0.65802
 Alpha virt. eigenvalues --    0.77726   0.90958   0.95607   1.00139   1.04010
 Alpha virt. eigenvalues --    1.12335   1.13282   1.18417   1.24891   1.31738
 Alpha virt. eigenvalues --    1.49931   1.51581   1.59143   1.67689   1.72099
 Alpha virt. eigenvalues --    1.74193   1.89323   2.06298   2.12474   2.24648
 Alpha virt. eigenvalues --    2.51044   2.62698   2.75291   2.95061   3.02725
 Alpha virt. eigenvalues --    3.17632   3.49337   3.77553   3.78412   3.79007
 Alpha virt. eigenvalues --    3.82023   3.94814   3.95032   4.00650   4.18738
 Alpha virt. eigenvalues --    4.57877   4.78302   6.02984   6.07662   6.10771
 Alpha virt. eigenvalues --    6.20099   6.33189   6.55788  23.24327  24.17307
 Alpha virt. eigenvalues --   66.68486  66.74006
          Condensed to atoms (all electrons):
               1          2          3          4          5          6
     1  C    4.958881   0.518299   0.376713   0.267194  -0.044046  -0.055357
     2  C    0.518299   4.958881  -0.055357  -0.044046   0.267194   0.376713
     3  H    0.376713  -0.055357   0.445412  -0.031695   0.002183   0.001154
     4  F    0.267194  -0.044046  -0.031695   9.044921   0.001350   0.002183
     5  F   -0.044046   0.267194   0.002183   0.001350   9.044921  -0.031695
     6  H   -0.055357   0.376713   0.001154   0.002183  -0.031695   0.445412
 Mulliken charges:
               1
     1  C   -0.021683
     2  C   -0.021683
     3  H    0.261591
     4  F   -0.239908
     5  F   -0.239908
     6  H    0.261591
 Sum of Mulliken charges =  -0.00000
 Mulliken charges with hydrogens summed into heavy atoms:
               1
     1  C    0.239908
     2  C    0.239908
     4  F   -0.239908
     5  F   -0.239908
 APT charges:
               1
     1  C    0.492331
     2  C    0.492331
     3  H    0.101653
     4  F   -0.593985
     5  F   -0.593985
     6  H    0.101653
 Sum of APT charges =   0.00000
 APT charges with hydrogens summed into heavy atoms:
               1
     1  C    0.593985
     2  C    0.593985
     4  F   -0.593985
     5  F   -0.593985
 Electronic spatial extent (au):  <R**2>=            249.3950
 Charge=             -0.0000 electrons
 Dipole moment (field-independent basis, Debye):
    X=              0.0000    Y=              3.1012    Z=              0.0000  Tot=              3.1012
 Quadrupole moment (field-independent basis, Debye-Ang):
   XX=            -22.0971   YY=            -18.9074   ZZ=            -22.4266
   XY=              0.0000   XZ=              0.0000   YZ=              0.0000
 Traceless Quadrupole moment (field-independent basis, Debye-Ang):
   XX=             -0.9534   YY=              2.2363   ZZ=             -1.2829
   XY=              0.0000   XZ=              0.0000   YZ=              0.0000
 Octapole moment (field-independent basis, Debye-Ang**2):
  XXX=              0.0000  YYY=             -2.7201  ZZZ=             -0.0004  XYY=             -0.0000
  XXY=              3.8208  XXZ=              0.0000  XZZ=              0.0000  YZZ=             -3.8682
  YYZ=              0.0000  XYZ=              0.0000
 Hexadecapole moment (field-independent basis, Debye-Ang**3):
 XXXX=           -168.2459 YYYY=            -64.1337 ZZZZ=            -19.8674 XXXY=              0.0000
 XXXZ=             -0.0004 YYYX=              0.0000 YYYZ=             -0.0005 ZZZX=             -0.0004
 ZZZY=             -0.0008 XXYY=            -34.0486 XXZZ=            -30.9575 YYZZ=            -16.5931
 XXYZ=             -0.0002 YYXZ=             -0.0001 ZZXY=              0.0000
 N-N= 1.133216574568D+02 E-N=-8.839212978059D+02  KE= 2.764726288917D+02
  Exact polarizability:      40.249      -0.000      25.198       0.000       0.000      15.826
 Approx polarizability:      48.357      -0.000      27.967       0.000       0.000      17.121
 No NMR shielding tensors so no spin-rotation constants.
 Leave Link  601 at Thu Jul 10 14:46:35 2025, MaxMem=  2684354560 cpu:               5.8 elap:               0.5
 (Enter /apps/gaussian/g16c01/g16/l701.exe)
 ... and contract with generalized density number  0.
 Compute integral second derivatives.
 R6Disp: Adding Grimme-D3(BJ) dispersion energy 2nd derivatives to the Hessian.
 D2PCM: PCM CHGder 2nd derivatives, FixD1E=F FixD2E=F DoIter=F DoCFld=F I1PDM=0
 GePol: Maximum number of non-zero 2nd derivatives   =     193
 Leave Link  701 at Thu Jul 10 14:46:37 2025, MaxMem=  2684354560 cpu:              29.9 elap:               1.6
 (Enter /apps/gaussian/g16c01/g16/l702.exe)
 L702 exits ... SP integral derivatives will be done elsewhere.
 Leave Link  702 at Thu Jul 10 14:46:37 2025, MaxMem=  2684354560 cpu:               0.7 elap:               0.0
 (Enter /apps/gaussian/g16c01/g16/l703.exe)
 Integral derivatives from FoFJK, PRISM(SPDF).
 Compute integral second derivatives, UseDBF=F ICtDFT=           0.
 Calling FoFJK, ICntrl=    100127 FMM=F ISym2X=0 I1Cent= 0 IOpClX= 0 NMat=1 NMatS=1 NMatT=0.
 FoFJK:  IHMeth= 1 ICntrl=  100127 DoSepK=F KAlg= 0 I1Cent=           0 FoldK=F
 IRaf=         0 NMat=       1 IRICut=       1 DoRegI=T DoRafI=F ISym2E= 0 IDoP0=0 IntGTp=1.
 FoFCou: FMM=F IPFlag=           0 FMFlag=      100000 FMFlg1=         800
         NFxFlg=           0 DoJE=F BraDBF=F KetDBF=F FulRan=T
         wScrn=  0.000000 ICntrl=    100127 IOpCl=  0 I1Cent=           0 NGrid=           0
         NMat0=    1 NMatS0=      1 NMatT0=    0 NMatD0=    1 NMtDS0=    0 NMtDT0=    0
 Symmetry not used in FoFCou.
 Leave Link  703 at Thu Jul 10 14:46:38 2025, MaxMem=  2684354560 cpu:              29.8 elap:               1.6
 (Enter /apps/gaussian/g16c01/g16/l716.exe)
 Dipole        = 7.84569444D-10 1.22011149D+00 1.74079102D-05
 Polarizability= 4.02489351D+01-2.49209892D-09 2.51976197D+01
                 1.28530182D-04 1.65609942D-04 1.58259880D+01
 Full mass-weighted force constant matrix:
 Low frequencies ---  -23.3072  -17.6474    0.0009    0.0012    0.0013   21.0094
 Low frequencies ---  232.9077  503.2126  763.7520
 Diagonal vibrational polarizability:
        8.0252814       6.4325042       3.1314897
 Harmonic frequencies (cm**-1), IR intensities (KM/Mole), Raman scattering
 activities (A**4/AMU), depolarization ratios for plane and unpolarized
 incident light, reduced masses (AMU), force constants (mDyne/A),
 and normal coordinates:
                      1                      2                      3
                      A                      A                      A
 Frequencies --    232.9077               503.2124               763.7517
 Red. masses --     14.5192                 4.0432                 8.1321
 Frc consts  --      0.4640                 0.6032                 2.7948
 IR Inten    --      3.6065                 0.0000                64.8380
  Atom  AN      X      Y      Z        X      Y      Z        X      Y      Z
     1   6     0.01   0.22   0.00    -0.00  -0.00   0.33     0.35  -0.28  -0.00
     2   6    -0.01   0.22   0.00     0.00   0.00  -0.33     0.35   0.28   0.00
     3   1    -0.32  -0.01  -0.00    -0.00  -0.00   0.61     0.37  -0.29   0.00
     4   9     0.57  -0.14  -0.00     0.00   0.00  -0.13    -0.24  -0.12  -0.00
     5   9    -0.57  -0.14  -0.00    -0.00  -0.00   0.13    -0.24   0.12   0.00
     6   1     0.32  -0.01   0.00     0.00   0.00  -0.61     0.37   0.29  -0.00
                      4                      5                      6
                      A                      A                      A
 Frequencies --    788.6885               872.5996              1000.4089
 Red. masses --      1.2784                 1.2672                 5.2101
 Frc consts  --      0.4685                 0.5685                 3.0722
 IR Inten    --     72.3817                 0.0000               115.6371
  Atom  AN      X      Y      Z        X      Y      Z        X      Y      Z
     1   6     0.00   0.00  -0.10    -0.00   0.00  -0.11    -0.11   0.30   0.00
     2   6     0.00   0.00  -0.10    -0.00  -0.00   0.11     0.11   0.30   0.00
     3   1    -0.00  -0.00   0.70    -0.00  -0.00   0.70    -0.59  -0.00  -0.00
     4   9    -0.00  -0.00   0.03     0.00   0.00  -0.00    -0.14  -0.19  -0.00
     5   9     0.00  -0.00   0.03     0.00  -0.00   0.00     0.14  -0.19  -0.00
     6   1     0.00  -0.00   0.70    -0.00   0.00  -0.70     0.59  -0.00  -0.00
                      7                      8                      9
                      A                      A                      A
 Frequencies --   1089.9511              1268.4268              1380.4824
 Red. masses --      4.4066                 1.1879                 1.3053
 Frc consts  --      3.0844                 1.1261                 1.4656
 IR Inten    --    204.5871                64.5771                27.1189
  Atom  AN      X      Y      Z        X      Y      Z        X      Y      Z
     1   6     0.07   0.30   0.00     0.04   0.05   0.00    -0.08  -0.09  -0.00
     2   6     0.07  -0.30  -0.00    -0.04   0.05   0.00    -0.08   0.09   0.00
     3   1     0.36   0.49   0.00     0.57   0.41   0.00     0.59   0.37   0.00
     4   9    -0.07  -0.18  -0.00    -0.01  -0.05  -0.00     0.02   0.00   0.00
     5   9    -0.07   0.18   0.00     0.01  -0.05  -0.00     0.02  -0.00  -0.00
     6   1     0.36  -0.49  -0.00    -0.57   0.41   0.00     0.59  -0.37  -0.00
                     10                     11                     12
                      A                      A                      A
 Frequencies --   1762.7384              3244.0861              3264.5229
 Red. masses --      6.4382                 1.0878                 1.1053
 Frc consts  --     11.7866                 6.7453                 6.9402
 IR Inten    --     51.7194                 6.4919                 2.3315
  Atom  AN      X      Y      Z        X      Y      Z        X      Y      Z
     1   6     0.49   0.09   0.00     0.03  -0.05  -0.00     0.04  -0.05  -0.00
     2   6    -0.49   0.09   0.00     0.03   0.05   0.00    -0.04  -0.05  -0.00
     3   1    -0.17  -0.48  -0.00    -0.40   0.58   0.00    -0.40   0.58   0.00
     4   9    -0.04  -0.03  -0.00    -0.00  -0.00  -0.00     0.00   0.00   0.00
     5   9     0.04  -0.03  -0.00    -0.00   0.00   0.00    -0.00   0.00   0.00
     6   1     0.17  -0.48  -0.00    -0.40  -0.58  -0.00     0.40   0.58   0.00

 -------------------
 - Thermochemistry -
 -------------------
 Temperature   298.150 Kelvin.  Pressure   1.00000 Atm.
 Atom     1 has atomic number  6 and mass  12.00000
 Atom     2 has atomic number  6 and mass  12.00000
 Atom     3 has atomic number  1 and mass   1.00783
 Atom     4 has atomic number  9 and mass  18.99840
 Atom     5 has atomic number  9 and mass  18.99840
 Atom     6 has atomic number  1 and mass   1.00783
 Molecular mass:    64.01246 amu.
 Principal axes and moments of inertia in atomic units:
                           1         2         3
     Eigenvalues --    87.19415 305.06211 392.25626
           X            1.00000  -0.00000  -0.00001
           Y           -0.00000   1.00000  -0.00003
           Z            0.00001   0.00003   1.00000
 This molecule is an asymmetric top.
 Rotational symmetry number  1.
 Rotational temperatures (Kelvin)      0.99335     0.28392     0.22081
 Rotational constants (GHZ):          20.69796     5.91598     4.60092
 Zero-point vibrational energy      96728.7 (Joules/Mol)
                                   23.11872 (Kcal/Mol)
 Warning -- explicit consideration of   2 degrees of freedom as
           vibrations may cause significant error
 Vibrational temperatures:    335.10   724.01  1098.87  1134.75  1255.48
          (Kelvin)           1439.37  1568.20  1824.98  1986.21  2536.19
                             4667.52  4696.92
 
 Zero-point correction=                           0.036842 (Hartree/Particle)
 Thermal correction to Energy=                    0.040724
 Thermal correction to Enthalpy=                  0.041668
 Thermal correction to Gibbs Free Energy=         0.010509
 Sum of electronic and zero-point Energies=           -277.094005
 Sum of electronic and thermal Energies=              -277.090123
 Sum of electronic and thermal Enthalpies=            -277.089179
 Sum of electronic and thermal Free Energies=         -277.120338
 
                     E (Thermal)             CV                S
                      KCal/Mol        Cal/Mol-Kelvin    Cal/Mol-Kelvin
 Total                   25.554             11.888             65.579
 Electronic               0.000              0.000              0.000
 Translational            0.889              2.981             38.388
 Rotational               0.889              2.981             23.860
 Vibrational             23.777              5.926              3.331
 Vibration     1          0.654              1.791              1.856
 Vibration     2          0.859              1.243              0.650
                       Q            Log10(Q)             Ln(Q)
 Total Bot       0.146626D-04         -4.833790        -11.130214
 Total V=0       0.129523D+13         12.112346         27.889708
 Vib (Bot)       0.199201D-16        -16.700709        -38.454804
 Vib (Bot)    1  0.844568D+00         -0.073366         -0.168930
 Vib (Bot)    2  0.325675D+00         -0.487216         -1.121856
 Vib (V=0)       0.175965D+01          0.245427          0.565117
 Vib (V=0)    1  0.148148D+01          0.170695          0.393039
 Vib (V=0)    2  0.109671D+01          0.040092          0.092316
 Electronic      0.100000D+01          0.000000          0.000000
 Translational   0.201303D+08          7.303851         16.817738
 Rotational      0.365652D+05          4.563068         10.506853
 
                                                           H2F2_wat_M05-2x
                                                             IR Spectrum
 
     33                                                         1              1   1      1   1                                      
     22                                                         7              3   2      0   0    8  77         5         2         
     64                                                         6              8   6      9   0    7  86         0         3         
     54                                                         3              0   8      0   0    3  94         3         3         
 
     XX                                                         X              X   X      X   X       XX                   X         
                                                                X              X   X      X   X       XX                             
                                                                X              X   X      X   X       XX                             
                                                                X                  X      X   X       XX                             
                                                                X                  X      X   X       XX                             
                                                                                   X      X   X       XX                             
                                                                                          X   X       X                              
                                                                                          X   X                                      
                                                                                          X   X                                      
                                                                                          X   X                                      
                                                                                          X   X                                      
                                                                                          X                                          
                                                                                          X                                          
                                                                                          X                                          
                                                                                          X                                          
                                                                                          X                                          
[...]
                                                                                          X                                          
                                                                                          X                                          
 
 ***** Axes restored to original set *****
 -------------------------------------------------------------------
 Center     Atomic                   Forces (Hartrees/Bohr)
 Number     Number              X              Y              Z
 -------------------------------------------------------------------
      1        6          -0.000058597    0.000035004   -0.000001450
      2        6           0.000058597    0.000035004   -0.000001274
      3        1          -0.000026321   -0.000076948    0.000000773
      4        9           0.000076896    0.000041944    0.000000628
      5        9          -0.000076896    0.000041943    0.000000562
      6        1           0.000026321   -0.000076948    0.000000761
 -------------------------------------------------------------------
 Cartesian Forces:  Max     0.000076948 RMS     0.000045884
 Force constants in Cartesian coordinates: 
                1             2             3             4             5 
      1  0.911957D+00
      2 -0.705586D-01  0.607421D+00
      3  0.672362D-05  0.718773D-05  0.104734D+00
      4 -0.579695D+00 -0.202210D-01 -0.422822D-05  0.911957D+00
      5  0.202210D-01 -0.866394D-01  0.000000D+00  0.705586D-01  0.607421D+00
      6 -0.146607D-05  0.000000D+00 -0.474551D-01  0.218137D-05  0.793008D-05
      7 -0.162826D+00  0.148570D+00  0.000000D+00 -0.367607D-02  0.230783D-01
      8  0.143852D+00 -0.250131D+00  0.000000D+00 -0.589076D-03  0.551404D-02
      9  0.000000D+00  0.000000D+00 -0.312397D-01  0.000000D+00  0.000000D+00
     10 -0.140904D+00 -0.998689D-01 -0.350297D-05 -0.248559D-01 -0.651571D-01
     11 -0.106013D+00 -0.243579D+00 -0.526912D-05 -0.119085D-01 -0.325853D-01
     12 -0.414907D-05 -0.638694D-05 -0.354839D-01  0.000000D+00 -0.170051D-05
     13 -0.248559D-01  0.651571D-01  0.180051D-05 -0.140904D+00  0.998689D-01
     14  0.119085D-01 -0.325853D-01 -0.167180D-05  0.106013D+00 -0.243579D+00
     15  0.000000D+00  0.000000D+00  0.105852D-01  0.285290D-05 -0.511123D-05
     16 -0.367607D-02 -0.230783D-01  0.000000D+00 -0.162826D+00 -0.148570D+00
     17  0.589076D-03  0.551404D-02  0.000000D+00 -0.143852D+00 -0.250131D+00
     18  0.000000D+00  0.000000D+00 -0.114045D-02  0.000000D+00 -0.135930D-05
                6             7             8             9            10 
      6  0.104734D+00
      7  0.000000D+00  0.160121D+00
      8  0.000000D+00 -0.144635D+00  0.272852D+00
      9 -0.114045D-02  0.000000D+00  0.000000D+00  0.213572D-01
     10 -0.221559D-05  0.119679D-01  0.408990D-02  0.000000D+00  0.156245D+00
     11 -0.179652D-05 -0.266763D-01 -0.303412D-01 -0.137873D-05  0.151239D+00
     12  0.105852D-01  0.000000D+00  0.000000D+00  0.313951D-02  0.509304D-05
     13  0.227790D-05 -0.537254D-02 -0.315546D-02  0.000000D+00  0.291915D-02
     14 -0.398377D-05  0.995976D-04  0.202455D-02  0.000000D+00  0.654185D-02
     15 -0.354839D-01  0.000000D+00  0.000000D+00  0.108866D-01  0.000000D+00
     16 -0.112453D-05 -0.214430D-03  0.436745D-03  0.000000D+00 -0.537254D-02
     17 -0.226329D-05 -0.436745D-03  0.818924D-04  0.000000D+00  0.315546D-02
     18 -0.312397D-01  0.000000D+00  0.000000D+00 -0.300319D-02  0.000000D+00
               11            12            13            14            15 
     11  0.286922D+00
     12  0.776453D-05  0.199955D-01
     13 -0.654185D-02  0.000000D+00  0.156245D+00
     14  0.175588D-01  0.000000D+00 -0.151239D+00  0.286922D+00
     15  0.000000D+00 -0.912291D-02 -0.350079D-05  0.592452D-05  0.199955D-01
     16 -0.995978D-04  0.000000D+00  0.119679D-01  0.266763D-01  0.000000D+00
     17  0.202455D-02  0.000000D+00 -0.408990D-02 -0.303412D-01  0.000000D+00
     18  0.000000D+00  0.108866D-01  0.000000D+00 -0.104821D-05  0.313951D-02
               16            17            18 
     16  0.160121D+00
     17  0.144635D+00  0.272852D+00
     18  0.107812D-05  0.264961D-05  0.213572D-01
 FormGI is forming the generalized inverse of G from B-inverse, IUseBI=4.
 Force constants in internal coordinates: 
                1             2             3             4             5 
      1  0.644800D+00
      2  0.240915D-02  0.371657D+00
      3  0.301671D-01  0.105300D-01  0.386134D+00
      4  0.301671D-01 -0.119886D-02  0.177038D-01  0.386134D+00
      5  0.240915D-02  0.560081D-03 -0.119886D-02  0.105300D-01  0.371657D+00
      6  0.156337D-02  0.625222D-02 -0.435804D-01  0.111857D-01 -0.820160D-03
      7  0.163524D-01 -0.661899D-02  0.325713D-01 -0.135705D-01  0.196510D-02
      8 -0.179158D-01  0.366774D-03  0.110091D-01  0.238477D-02 -0.114494D-02
      9  0.163524D-01  0.196510D-02 -0.135705D-01  0.325713D-01 -0.661899D-02
     10  0.156337D-02 -0.820160D-03  0.111857D-01 -0.435804D-01  0.625222D-02
     11 -0.179158D-01 -0.114494D-02  0.238477D-02  0.110091D-01  0.366774D-03
     12  0.000000D+00  0.000000D+00  0.000000D+00  0.000000D+00  0.000000D+00
     13  0.000000D+00  0.000000D+00  0.000000D+00  0.000000D+00  0.000000D+00
     14  0.000000D+00  0.000000D+00  0.000000D+00  0.000000D+00  0.000000D+00
     15  0.000000D+00  0.000000D+00  0.000000D+00  0.000000D+00  0.000000D+00
                6             7             8             9            10 
      6  0.828525D-01
      7 -0.495795D-01  0.122042D+00
      8 -0.332729D-01 -0.724627D-01  0.105736D+00
      9  0.180444D-01 -0.198697D-01  0.182529D-02  0.122042D+00
     10 -0.132027D-01  0.180444D-01 -0.484170D-02 -0.495795D-01  0.828525D-01
     11 -0.484170D-02  0.182529D-02  0.301641D-02 -0.724627D-01 -0.332729D-01
     12  0.000000D+00  0.000000D+00  0.000000D+00  0.000000D+00  0.000000D+00
     13  0.000000D+00  0.000000D+00  0.000000D+00  0.000000D+00  0.000000D+00
     14  0.000000D+00  0.000000D+00  0.000000D+00  0.000000D+00  0.000000D+00
     15  0.000000D+00  0.000000D+00  0.000000D+00  0.000000D+00  0.000000D+00
               11            12            13            14            15 
     11  0.105736D+00
     12  0.000000D+00  0.342324D-01
     13  0.000000D+00  0.400517D-02  0.184313D-01
     14  0.000000D+00  0.125295D-01 -0.104210D-01  0.354800D-01
     15  0.000000D+00 -0.176978D-01  0.400517D-02  0.125295D-01  0.342324D-01
 Leave Link  716 at Thu Jul 10 14:46:39 2025, MaxMem=  2684354560 cpu:               2.9 elap:               0.2
 (Enter /apps/gaussian/g16c01/g16/l103.exe)

 GradGradGradGradGradGradGradGradGradGradGradGradGradGradGradGradGradGrad
 Berny optimization.
 Red2BG is reusing G-inverse.
 Internal  Forces:  Max     0.000124897 RMS     0.000070952
 Search for a local minimum.
 Step number   1 out of a maximum of    2
 All quantities printed in internal units (Hartrees-Bohrs-Radians)
 Second derivative matrix not updated -- analytic derivatives used.
 The second derivative matrix:
                          R1        R2        R3        R4        R5
           R1           0.64480
           R2           0.00241   0.37166
           R3           0.03017   0.01053   0.38613
           R4           0.03017  -0.00120   0.01770   0.38613
           R5           0.00241   0.00056  -0.00120   0.01053   0.37166
           A1           0.00156   0.00625  -0.04358   0.01119  -0.00082
           A2           0.01635  -0.00662   0.03257  -0.01357   0.00197
           A3          -0.01792   0.00037   0.01101   0.00238  -0.00114
           A4           0.01635   0.00197  -0.01357   0.03257  -0.00662
           A5           0.00156  -0.00082   0.01119  -0.04358   0.00625
           A6          -0.01792  -0.00114   0.00238   0.01101   0.00037
           D1          -0.00000  -0.00000  -0.00000  -0.00000  -0.00000
           D2          -0.00000  -0.00000  -0.00000   0.00000   0.00000
           D3           0.00000   0.00000   0.00000  -0.00000  -0.00000
           D4           0.00000   0.00000   0.00000   0.00000   0.00000
                          A1        A2        A3        A4        A5
           A1           0.08285
           A2          -0.04958   0.12204
           A3          -0.03327  -0.07246   0.10574
           A4           0.01804  -0.01987   0.00183   0.12204
           A5          -0.01320   0.01804  -0.00484  -0.04958   0.08285
           A6          -0.00484   0.00183   0.00302  -0.07246  -0.03327
           D1          -0.00000  -0.00000   0.00000  -0.00000  -0.00000
           D2          -0.00000  -0.00000   0.00000   0.00000   0.00000
           D3          -0.00000   0.00000  -0.00000  -0.00000   0.00000
           D4           0.00000   0.00000  -0.00000   0.00000   0.00000
                          A6        D1        D2        D3        D4
           A6           0.10574
           D1           0.00000   0.03423
           D2          -0.00000   0.00401   0.01843
           D3           0.00000   0.01253  -0.01042   0.03548
           D4          -0.00000  -0.01770   0.00401   0.01253   0.03423
 ITU=  0
     Eigenvalues ---    0.02298   0.04747   0.05193   0.09852   0.11656
     Eigenvalues ---    0.17399   0.19835   0.36983   0.37051   0.39547
     Eigenvalues ---    0.40369   0.65471
 Angle between quadratic step and forces=  25.18 degrees.
 Linear search not attempted -- first point.
 Iteration  1 RMS(Cart)=  0.00113235 RMS(Int)=  0.00000070
 Iteration  2 RMS(Cart)=  0.00000070 RMS(Int)=  0.00000000
 ITry= 1 IFail=0 DXMaxC= 2.08D-03 DCOld= 1.00D+10 DXMaxT= 3.00D-01 DXLimC= 3.00D+00 Rises=F
 Variable       Old X    -DE/DX   Delta X   Delta X   Delta X     New X
                                 (Linear)    (Quad)   (Total)
    R1        2.49669   0.00001   0.00000   0.00005   0.00005   2.49673
    R2        2.04263  -0.00005   0.00000  -0.00016  -0.00016   2.04247
    R3        2.55529  -0.00008   0.00000  -0.00004  -0.00004   2.55526
    R4        2.55529  -0.00008   0.00000  -0.00004  -0.00004   2.55526
    R5        2.04263  -0.00005   0.00000  -0.00016  -0.00016   2.04247
    A1        2.16123   0.00012   0.00000   0.00121   0.00121   2.16244
    A2        2.12662  -0.00012   0.00000  -0.00096  -0.00096   2.12566
    A3        1.99534  -0.00001   0.00000  -0.00025  -0.00025   1.99508
    A4        2.12662  -0.00012   0.00000  -0.00096  -0.00096   2.12566
    A5        2.16123   0.00012   0.00000   0.00121   0.00121   2.16244
    A6        1.99534  -0.00001   0.00000  -0.00025  -0.00025   1.99508
    D1       -3.14157  -0.00000   0.00000  -0.00002  -0.00002  -3.14159
    D2        0.00000  -0.00000   0.00000  -0.00000  -0.00000  -0.00000
    D3       -0.00000   0.00000   0.00000   0.00000   0.00000   0.00000
    D4        3.14157   0.00000   0.00000   0.00003   0.00003   3.14159
         Item               Value     Threshold  Converged?
 Maximum Force            0.000125     0.000450     YES
 RMS     Force            0.000071     0.000300     YES
 Maximum Displacement     0.002081     0.001800     NO 
 RMS     Displacement     0.001132     0.001200     YES
 Predicted change in Energy=-2.774151D-07
                           ----------------------------
                           ! Non-Optimized Parameters !
                           ! (Angstroms and Degrees)  !
 --------------------------                            --------------------------
 ! Name  Definition              Value          Derivative Info.                !
 --------------------------------------------------------------------------------
 ! R1    R(1,2)                  1.3212         -DE/DX =    0.0                 !
 ! R2    R(1,3)                  1.0808         -DE/DX =    0.0                 !
 ! R3    R(1,4)                  1.3522         -DE/DX =   -0.0001              !
 ! R4    R(2,5)                  1.3522         -DE/DX =   -0.0001              !
 ! R5    R(2,6)                  1.0808         -DE/DX =    0.0                 !
 ! A1    A(2,1,3)              123.8989         -DE/DX =    0.0001              !
 ! A2    A(2,1,4)              121.7912         -DE/DX =   -0.0001              !
 ! A3    A(3,1,4)              114.3099         -DE/DX =    0.0                 !
 ! A4    A(1,2,5)              121.7912         -DE/DX =   -0.0001              !
 ! A5    A(1,2,6)              123.8989         -DE/DX =    0.0001              !
 ! A6    A(5,2,6)              114.3099         -DE/DX =    0.0                 !
 ! D1    D(3,1,2,5)           -180.0            -DE/DX =    0.0                 !
 ! D2    D(3,1,2,6)              0.0            -DE/DX =    0.0                 !
 ! D3    D(4,1,2,5)              0.0            -DE/DX =    0.0                 !
 ! D4    D(4,1,2,6)            180.0            -DE/DX =    0.0                 !
 --------------------------------------------------------------------------------
 GradGradGradGradGradGradGradGradGradGradGradGradGradGradGradGradGradGrad

 Leave Link  103 at Thu Jul 10 14:46:41 2025, MaxMem=  2684354560 cpu:              23.1 elap:               2.3
 (Enter /apps/gaussian/g16c01/g16/l9999.exe)

 ----------------------------------------------------------------------

 Electric dipole moment (input orientation):
 (Debye = 10**-18 statcoulomb cm , SI units = C m)
                  (au)            (Debye)         (10**-30 SI)
   Tot        0.122011D+01      0.310121D+01      0.103445D+02
   x          0.000000D+00      0.000000D+00      0.000000D+00
   y          0.122011D+01      0.310121D+01      0.103445D+02
   z          0.174079D-04      0.442465D-04      0.147590D-03

 Dipole polarizability, Alpha (input orientation).
 (esu units = cm**3 , SI units = C**2 m**2 J**-1)
 Alpha(0;0):
               (au)            (10**-24 esu)      (10**-40 SI)
   iso        0.270908D+02      0.401445D+01      0.446668D+01
   aniso      0.213407D+02      0.316236D+01      0.351860D+01
   xx         0.402489D+02      0.596428D+01      0.663615D+01
   yx         0.000000D+00      0.000000D+00      0.000000D+00
   yy         0.251976D+02      0.373390D+01      0.415453D+01
   zx         0.128530D-03      0.190462D-04      0.211918D-04
   zy         0.165610D-03      0.245409D-04      0.273054D-04
   zz         0.158260D+02      0.234517D+01      0.260935D+01

 ----------------------------------------------------------------------

 Dipole orientation:
     6         -1.24834363         -0.00001244          1.11493463
     6          1.24834363         -0.00002567          1.11493464
     1         -2.38551845          0.00001177          2.81174429
     9         -2.59661975          0.00002840         -1.05570495
     9          2.59661976         -0.00000184         -1.05570495
     1          2.38551845         -0.00001469          2.81174429

 Electric dipole moment (dipole orientation):
 (Debye = 10**-18 statcoulomb cm , SI units = C m)
                  (au)            (Debye)         (10**-30 SI)
   Tot        0.122011D+01      0.310121D+01      0.103445D+02
   x          0.000000D+00      0.000000D+00      0.000000D+00
   y          0.000000D+00      0.000000D+00      0.000000D+00
   z          0.122011D+01      0.310121D+01      0.103445D+02

 Dipole polarizability, Alpha (dipole orientation).
 (esu units = cm**3 , SI units = C**2 m**2 J**-1)
 Alpha(0;0):
               (au)            (10**-24 esu)      (10**-40 SI)
   iso        0.270908D+02      0.401445D+01      0.446668D+01
   aniso      0.213407D+02      0.316236D+01      0.351860D+01
   xx         0.402489D+02      0.596428D+01      0.663615D+01
   yx        -0.128541D-03     -0.190478D-04     -0.211935D-04
   yy         0.158260D+02      0.234517D+01      0.260935D+01
   zx         0.000000D+00      0.000000D+00      0.000000D+00
   zy        -0.319004D-04     -0.472715D-05     -0.525967D-05
   zz         0.251976D+02      0.373390D+01      0.415453D+01

 ----------------------------------------------------------------------
 Unable to Open any file for archive entry.
 1\1\GINC-GADI-CPU-CLX-1892\Freq\RB3LYP\6-311G(d)\C2H2F2\YR9300\10-Jul-
 2025\0\\#P Geom=AllCheck Guess=TCheck SCRF=Check GenChk RB3LYP/6-311G(
 d) Freq\\H2F2_wat_M05-2x\\0,1\C,-0.660595,0.589998,0.000015\C,0.660595
 ,0.589998,0.000022\H,-1.262362,1.487911,0.000015\F,-1.374072,-0.558655
 ,-0.000023\F,1.374072,-0.558655,-0.000007\H,1.262362,1.487911,0.000029
 \\Version=ES64L-G16RevC.01\State=1-A\HF=-277.1308466\RMSD=2.397e-10\RM
 SF=4.588e-05\ZeroPoint=0.036842\Thermal=0.0407235\ETot=-277.0901231\HT
 ot=-277.0891789\GTot=-277.1203376\Dipole=0.,1.2201115,0.0000174\Dipole
 Deriv=0.7264496,0.4116526,0.0000224,0.7097978,0.8460326,0.0000265,0.00
 00502,0.0000245,-0.0954882,0.7264496,-0.4116526,-0.0000132,-0.7097978,
 0.8460326,0.0000181,-0.0000395,0.0000197,-0.0954882,0.0664803,0.044336
 4,-0.0000016,-0.0123228,0.027522,-0.0000046,-0.0000109,-0.0000002,0.21
 09574,-0.7929299,-0.3191954,-0.000014,-0.8006085,-0.8735546,-0.0000222
 ,-0.0000327,-0.0000237,-0.1154693,-0.7929299,0.3191954,0.0000065,0.800
 6085,-0.8735546,-0.0000134,0.0000242,-0.0000196,-0.1154693,0.0664803,-
 0.0443364,0.,0.0123228,0.027522,-0.0000044,0.0000087,-0.0000009,0.2109
 574\Polar=40.2489351,0.,25.1976197,0.0001285,0.0001656,15.825988\Quadr
 upole=-0.7088631,1.6626442,-0.953781,0.,0.0000006,0.0000172\PG=C01 [X(
 C2H2F2)]\NImag=0\\0.91195742,-0.07055863,0.60742075,0.00000672,0.00000
 719,0.10473399,-0.57969546,-0.02022105,-0.00000423,0.91195742,0.020221
 05,-0.08663942,0.00000016,0.07055862,0.60742075,-0.00000147,-0.0000000
 7,-0.04745512,0.00000218,0.00000793,0.10473399,-0.16282631,0.14856971,
 -0.00000039,-0.00367607,0.02307831,0.00000035,0.16012149,0.14385249,-0
 .25013118,-0.00000060,-0.00058908,0.00551404,0.00000018,-0.14463460,0.
 27285185,-0.00000086,0.00000040,-0.03123968,0.00000022,0.00000008,-0.0
 0114045,0.00000054,0.00000098,0.02135717,-0.14090365,-0.09986886,-0.00
 000350,-0.02485593,-0.06515713,-0.00000222,0.01196785,0.00408990,0.000
 00023,0.15624512,-0.10601252,-0.24357888,-0.00000527,-0.01190854,-0.03
 258531,-0.00000180,-0.02667627,-0.03034116,-0.00000138,0.15123878,0.28
 692200,-0.00000415,-0.00000639,-0.03548391,-0.00000031,-0.00000170,0.0
 1058517,-0.00000034,-0.00000052,0.00313951,0.00000509,0.00000776,0.019
 99550,-0.02485593,0.06515713,0.00000180,-0.14090365,0.09986886,0.00000
 228,-0.00537254,-0.00315546,-0.00000011,0.00291915,-0.00654185,-0.0000
 0033,0.15624512,0.01190854,-0.03258531,-0.00000167,0.10601252,-0.24357
 888,-0.00000398,0.00009960,0.00202455,-0.00000009,0.00654185,0.0175588
 0,0.00000087,-0.15123878,0.28692200,-0.00000005,-0.00000099,0.01058517
 ,0.00000285,-0.00000511,-0.03548391,-0.00000021,-0.00000006,0.01088664
 ,0.00000047,0.00000079,-0.00912291,-0.00000350,0.00000592,0.01999550,-
 0.00367607,-0.02307831,-0.00000040,-0.16282631,-0.14856971,-0.00000112
 ,-0.00021443,0.00043675,-0.00000002,-0.00537254,-0.00009960,0.00000004
 ,0.01196785,0.02667628,0.00000043,0.16012149,0.00058908,0.00551404,0.0
 0000019,-0.14385249,-0.25013118,-0.00000226,-0.00043675,0.00008189,0.,
 0.00315546,0.00202455,-0.00000003,-0.00408990,-0.03034116,-0.00000056,
 0.14463460,0.27285185,-0.00000020,-0.00000014,-0.00114045,-0.00000071,
 -0.00000136,-0.03123968,0.00000005,0.00000001,-0.00300319,-0.00000008,
 -0.00000011,0.01088664,-0.00000013,-0.00000105,0.00313951,0.00000108,0
 .00000265,0.02135717\\0.00005860,-0.00003500,0.00000145,-0.00005860,-0
 .00003500,0.00000127,0.00002632,0.00007695,-0.00000077,-0.00007690,-0.
 00004194,-0.00000063,0.00007690,-0.00004194,-0.00000056,-0.00002632,0.
 00007695,-0.00000076\\\@
 The archive entry for this job was punched.


 OF ALL THE WONDERS OF THE UNIVERSE, THE GREATEST IS MAN.

                                    -- ARISTOTLE
 Job cpu time:       0 days  0 hours  3 minutes 27.5 seconds.
 Elapsed time:       0 days  0 hours  0 minutes 12.9 seconds.
 File lengths (MBytes):  RWF=     16 Int=      0 D2E=      0 Chk=      4 Scr=      1
 Normal termination of Gaussian 16 at Thu Jul 10 14:46:41 2025.
