 Entering Gaussian System, Link 0=g16
 Initial command:
 /apps/gaussian/g16c01/g16/l1.exe "/jobfs/145008195.gadi-pbs/Gau-4084189.inp" -scrdir="/jobfs/145008195.gadi-pbs/"
 Entering Link 1 = /apps/gaussian/g16c01/g16/l1.exe PID=   4084190.
  
 Copyright (c) 1988-2019, Gaussian, Inc.  All Rights Reserved.
  
 This is part of the Gaussian(R) 16 program.  It is based on
 the Gaussian(R) 09 system (copyright 2009, Gaussian, Inc.),
 the Gaussian(R) 03 system (copyright 2003, Gaussian, Inc.),
 the Gaussian(R) 98 system (copyright 1998, Gaussian, Inc.),
 the Gaussian(R) 94 system (copyright 1995, Gaussian, Inc.),
 the Gaussian 92(TM) system (copyright 1992, Gaussian, Inc.),
 the Gaussian 90(TM) system (copyright 1990, Gaussian, Inc.),
 the Gaussian 88(TM) system (copyright 1988, Gaussian, Inc.),
 the Gaussian 86(TM) system (copyright 1986, Carnegie Mellon
 University), and the Gaussian 82(TM) system (copyright 1983,
 Carnegie Mellon University). Gaussian is a federally registered
 trademark of Gaussian, Inc.
  
 This software contains proprietary and confidential information,
 including trade secrets, belonging to Gaussian, Inc.
  
 This software is provided under written license and may be
 used, copied, transmitted, or stored only in accord with that
 written license.
  
 The following legend is applicable only to US Government
 contracts under FAR:
  
                    RESTRICTED RIGHTS LEGEND
  
 Use, reproduction and disclosure by the US Government is
 subject to restrictions as set forth in subparagraphs (a)
 and (c) of the Commercial Computer Software - Restricted
 Rights clause in FAR 52.227-19.
  
 Gaussian, Inc.
 340 Quinnipiac St., Bldg. 40, Wallingford CT 06492
  
  
 ---------------------------------------------------------------
 Warning -- This program may not be used in any manner that
 competes with the business of Gaussian, Inc. or will provide
 assistance to any competitor of Gaussian, Inc.  The licensee
 of this program is prohibited from giving any competitor of
 Gaussian, Inc. access to this program.  By using this program,
 the user acknowledges that Gaussian, Inc. is engaged in the
 business of creating and licensing software in the field of
 computational chemistry and represents and warrants to the
 licensee that it is not a competitor of Gaussian, Inc. and that
 it will not use this program in any manner prohibited above.
 ---------------------------------------------------------------
  

 Cite this work as:
 Gaussian 16, Revision C.01,
 M. J. Frisch, G. W. Trucks, H. B. Schlegel, G. E. Scuseria, 
 M. A. Robb, J. R. Cheeseman, G. Scalmani, V. Barone, 
 G. A. Petersson, H. Nakatsuji, X. Li, M. Caricato, A. V. Marenich, 
 J. Bloino, B. G. Janesko, R. Gomperts, B. Mennucci, H. P. Hratchian, 
 J. V. Ortiz, A. F. Izmaylov, J. L. Sonnenberg, D. Williams-Young, 
 F. Ding, F. Lipparini, F. Egidi, J. Goings, B. Peng, A. Petrone, 
 T. Henderson, D. Ranasinghe, V. G. Zakrzewski, J. Gao, N. Rega, 
 G. Zheng, W. Liang, M. Hada, M. Ehara, K. Toyota, R. Fukuda, 
 J. Hasegawa, M. Ishida, T. Nakajima, Y. Honda, O. Kitao, H. Nakai, 
 T. Vreven, K. Throssell, J. A. Montgomery, Jr., J. E. Peralta, 
 F. Ogliaro, M. J. Bearpark, J. J. Heyd, E. N. Brothers, K. N. Kudin, 
 V. N. Staroverov, T. A. Keith, R. Kobayashi, J. Normand, 
 K. Raghavachari, A. P. Rendell, J. C. Burant, S. S. Iyengar, 
 J. Tomasi, M. Cossi, J. M. Millam, M. Klene, C. Adamo, R. Cammi, 
 J. W. Ochterski, R. L. Martin, K. Morokuma, O. Farkas, 
 J. B. Foresman, and D. J. Fox, Gaussian, Inc., Wallingford CT, 2019.
 
 ******************************************
 Gaussian 16:  ES64L-G16RevC.01  3-Jul-2019
                10-Jul-2025 
 ******************************************
 %chk=H2F2_iso2_wat_M05-2x.gjf.chk
 %mem=20GB
 %nprocshared=20
 Will use up to   20 processors via shared memory.
 -------------------------------------------
 #P M052X/6-31G* scrf(SMD,solvent=n-octanol)
 -------------------------------------------
 1/38=1,172=1/1;
 2/12=2,17=6,18=5,40=1/2;
 3/5=1,6=6,7=1,11=2,25=1,30=1,70=32201,72=25,74=-38/1,2,3;
 4//1;
 5/5=2,38=5,53=25/2;
 6/7=2,8=2,9=2,10=2,28=1/1;
 99/5=1,9=1/99;
 Leave Link    1 at Thu Jul 10 14:45:20 2025, MaxMem=  2684354560 cpu:               1.8 elap:               0.1
 (Enter /apps/gaussian/g16c01/g16/l101.exe)
 --------------------
 H2F2_iso2_wat_M05-2x
 --------------------
 Symbolic Z-matrix:
 Charge =  0 Multiplicity = 1
 C                     0.52527   0.40048   0.00002 
 C                    -0.52527  -0.40048   0.00002 
 H                     0.50258   1.48221  0. 
 F                     1.77259  -0.12581   0.00001 
 H                    -0.50258  -1.48221   0.00002 
 F                    -1.77259   0.12581  -0.00004 
 
 ITRead=  0  0  0  0  0  0
 MicOpt= -1 -1 -1 -1 -1 -1
 NAtoms=      6 NQM=        6 NQMF=       0 NMMI=      0 NMMIF=      0
                NMic=       0 NMicF=      0.
                    Isotopes and Nuclear Properties:
 (Nuclear quadrupole moments (NQMom) in fm**2, nuclear magnetic moments (NMagM)
  in nuclear magnetons)

  Atom         1           2           3           4           5           6
 IAtWgt=          12          12           1          19           1          19
 AtmWgt=  12.0000000  12.0000000   1.0078250  18.9984033   1.0078250  18.9984033
 NucSpn=           0           0           1           1           1           1
 AtZEff=  -0.0000000  -0.0000000  -0.0000000  -0.0000000  -0.0000000  -0.0000000
 NQMom=    0.0000000   0.0000000   0.0000000   0.0000000   0.0000000   0.0000000
 NMagM=    0.0000000   0.0000000   2.7928460   2.6288670   2.7928460   2.6288670
 AtZNuc=   6.0000000   6.0000000   1.0000000   9.0000000   1.0000000   9.0000000
 Leave Link  101 at Thu Jul 10 14:45:20 2025, MaxMem=  2684354560 cpu:               2.0 elap:               0.3
 (Enter /apps/gaussian/g16c01/g16/l202.exe)
                          Input orientation:                          
 ---------------------------------------------------------------------
 Center     Atomic      Atomic             Coordinates (Angstroms)
 Number     Number       Type             X           Y           Z
 ---------------------------------------------------------------------
      1          6           0        0.525274    0.400479    0.000024
      2          6           0       -0.525274   -0.400479    0.000019
      3          1           0        0.502575    1.482205   -0.000004
      4          9           0        1.772586   -0.125810    0.000012
      5          1           0       -0.502575   -1.482205    0.000018
      6          9           0       -1.772586    0.125810   -0.000042
 ---------------------------------------------------------------------
                    Distance matrix (angstroms):
                    1          2          3          4          5
     1  C    0.000000
     2  C    1.321054   0.000000
     3  H    1.081964   2.144988   0.000000
     4  F    1.353797   2.314218   2.049058   0.000000
     5  H    2.144988   1.081964   3.130184   2.648804   0.000000
     6  F    2.314218   1.353797   2.648804   3.554090   2.049058
                    6
     6  F    0.000000
 Stoichiometry    C2H2F2
 Framework group  C1[X(C2H2F2)]
 Deg. of freedom    12
 Full point group                 C1      NOp   1
 Largest Abelian subgroup         C1      NOp   1
 Largest concise Abelian subgroup C1      NOp   1
                         Standard orientation:                         
 ---------------------------------------------------------------------
 Center     Atomic      Atomic             Coordinates (Angstroms)
 Number     Number       Type             X           Y           Z
 ---------------------------------------------------------------------
      1          6           0        0.525274    0.400479    0.000024
      2          6           0       -0.525274   -0.400479    0.000019
      3          1           0        0.502575    1.482205   -0.000004
      4          9           0        1.772586   -0.125810    0.000012
      5          1           0       -0.502575   -1.482205    0.000018
      6          9           0       -1.772586    0.125810   -0.000042
 ---------------------------------------------------------------------
 Rotational constants (GHZ):          57.1215853           3.9934888           3.7325392
 Leave Link  202 at Thu Jul 10 14:45:20 2025, MaxMem=  2684354560 cpu:               2.0 elap:               0.2
 (Enter /apps/gaussian/g16c01/g16/l301.exe)
 Standard basis: 6-31G(d) (6D, 7F)
 Ernie: Thresh=  0.10000D-02 Tol=  0.10000D-05 Strict=F.
 There are    64 symmetry adapted cartesian basis functions of A   symmetry.
 There are    64 symmetry adapted basis functions of A   symmetry.
    64 basis functions,   120 primitive gaussians,    64 cartesian basis functions
    16 alpha electrons       16 beta electrons
       nuclear repulsion energy       110.6351485376 Hartrees.
 IExCor= 3428 DFT=T Ex+Corr=M052X ExCW=0 ScaHFX=  0.560000
 ScaDFX=  0.440000  0.440000  1.000000  1.000000 ScalE2=  1.000000  1.000000
 IRadAn=      5 IRanWt=     -1 IRanGd=            0 ICorTp=0 IEmpDi=  4
 NAtoms=    6 NActive=    6 NUniq=    6 SFac= 1.00D+00 NAtFMM=   60 NAOKFM=F Big=F
 Integral buffers will be    131072 words long.
 Raffenetti 2 integral format.
 Two-electron integral symmetry is turned on.
 ------------------------------------------------------------------------------
 Polarizable Continuum Model (PCM)
 =================================
 Model                : PCM.
 Atomic radii         : SMD-Coulomb.
 Polarization charges : Total charges.
 Charge compensation  : None.
 Solution method      : On-the-fly selection.
 Cavity type          : VdW (van der Waals Surface) (Alpha=1.000).
 Cavity algorithm     : GePol (No added spheres)
                        Default sphere list used, NSphG=    6.
                        Lebedev-Laikov grids with approx.  5.0 points / Ang**2.
                        Smoothing algorithm: York/Karplus (Gamma=1.0000).
                        Polarization charges: spherical gaussians, with
                                              point-specific exponents (IZeta= 3).
                        Self-potential: point-specific (ISelfS= 7).
                        Self-field    : sphere-specific E.n sum rule (ISelfD= 2).
 Solvent              : n-Octanol, Eps=   9.862900 Eps(inf)=   2.043470
 ------------------------------------------------------------------------------
 Spheres list:
 ISph  on   Nord     Re0    Alpha      Xe            Ye            Ze
    1   C      1    1.8500  1.000      0.525274      0.400479      0.000024
    2   C      2    1.8500  1.000     -0.525274     -0.400479      0.000019
    3   H      3    1.2000  1.000      0.502575      1.482205     -0.000004
    4   F      4    1.7300  1.000      1.772586     -0.125810      0.000012
    5   H      5    1.2000  1.000     -0.502575     -1.482205      0.000018
    6   F      6    1.7300  1.000     -1.772586      0.125810     -0.000042
 ------------------------------------------------------------------------------
 GePol: Number of generator spheres                  =       6
 GePol: Total number of spheres                      =       6
 GePol: Number of exposed spheres                    =       6 (100.00%)
 GePol: Number of points                             =     620
 GePol: Average weight of points                     =       0.14
 GePol: Minimum weight of points                     =   0.44D-05
 GePol: Maximum weight of points                     =    0.21501
 GePol: Number of points with low weight             =      24
 GePol: Fraction of low-weight points (<1% of avg)   =       3.87%
 GePol: Cavity surface area                          =     86.234 Ang**2
 GePol: Cavity volume                                =     63.587 Ang**3
 ------------------------------------------------------------------------------
 Atomic radii for non-electrostatic terms: SMD-CDS.
 ------------------------------------------------------------------------------
 PCM non-electrostatic energy =         0.0031976763 Hartrees.
 Nuclear repulsion after PCM non-electrostatic terms =      110.6383462138 Hartrees.
 Leave Link  301 at Thu Jul 10 14:45:20 2025, MaxMem=  2684354560 cpu:               1.9 elap:               0.1
 (Enter /apps/gaussian/g16c01/g16/l302.exe)
 NPDir=0 NMtPBC=     1 NCelOv=     1 NCel=       1 NClECP=     1 NCelD=      1
         NCelK=      1 NCelE2=     1 NClLst=     1 CellRange=     0.0.
 One-electron integrals computed using PRISM.
 One-electron integral symmetry used in STVInt
 NBasis=    64 RedAO= T EigKep=  4.04D-03  NBF=    64
 NBsUse=    64 1.00D-06 EigRej= -1.00D+00 NBFU=    64
 Precomputing XC quadrature grid using
 IXCGrd= 4 IRadAn=           5 IRanWt=          -1 IRanGd=           0 AccXCQ= 0.00D+00.
 Generated NRdTot=       0 NPtTot=           0 NUsed=           0 NTot=          32
 NSgBfM=    64    64    64    64    64 MxSgAt=     6 MxSgA2=     6.
 Leave Link  302 at Thu Jul 10 14:45:21 2025, MaxMem=  2684354560 cpu:               6.5 elap:               0.4
 (Enter /apps/gaussian/g16c01/g16/l303.exe)
 DipDrv:  MaxL=1.
 Leave Link  303 at Thu Jul 10 14:45:21 2025, MaxMem=  2684354560 cpu:               1.0 elap:               0.1
 (Enter /apps/gaussian/g16c01/g16/l401.exe)
 ExpMin= 1.61D-01 ExpMax= 7.00D+03 ExpMxC= 1.05D+03 IAcc=3 IRadAn=         5 AccDes= 0.00D+00
 Harris functional with IExCor= 1009 and IRadAn=       5 diagonalized for initial guess.
 HarFok:  IExCor= 1009 AccDes= 0.00D+00 IRadAn=         5 IDoV= 1 UseB2=F ITyADJ=14
 ICtDFT=  3500011 ScaDFX=  1.000000  1.000000  1.000000  1.000000
 FoFCou: FMM=F IPFlag=           0 FMFlag=      100000 FMFlg1=           0
         NFxFlg=           0 DoJE=T BraDBF=F KetDBF=T FulRan=T
         wScrn=  0.000000 ICntrl=       500 IOpCl=  0 I1Cent=   200000004 NGrid=           0
         NMat0=    1 NMatS0=      1 NMatT0=    0 NMatD0=    1 NMtDS0=    0 NMtDT0=    0
 Petite list used in FoFCou.
 Harris En= -276.769945779698    
 JPrj=0 DoOrth=F DoCkMO=F.
 Leave Link  401 at Thu Jul 10 14:45:21 2025, MaxMem=  2684354560 cpu:               9.2 elap:               0.6
 (Enter /apps/gaussian/g16c01/g16/l502.exe)
 Keep R1 ints in memory in canonical form, NReq=19962716.
 FoFCou: FMM=F IPFlag=           0 FMFlag=           0 FMFlg1=           0
         NFxFlg=           0 DoJE=F BraDBF=F KetDBF=F FulRan=T
         wScrn=  0.000000 ICntrl=       600 IOpCl=  0 I1Cent=           0 NGrid=           0
         NMat0=    1 NMatS0=   2080 NMatT0=    0 NMatD0=    1 NMtDS0=    0 NMtDT0=    0
 Symmetry not used in FoFCou.
 Two-electron integral symmetry not used.
 Closed shell SCF:
 Using DIIS extrapolation, IDIIS=  1040.
 NGot=  2684354560 LenX=  2682179902 LenY=  2682175365
 Requested convergence on RMS density matrix=1.00D-08 within 128 cycles.
 Requested convergence on MAX density matrix=1.00D-06.
 Requested convergence on             energy=1.00D-06.
 No special actions if energy rises.

 Cycle   1  Pass 1  IDiag  1:
 Inv3:  Mode=1 IEnd=     1153200.
 Iteration    1 A*A^-1 deviation from unit magnitude is 2.66D-15 for    539.
 Iteration    1 A*A^-1 deviation from orthogonality  is 1.94D-15 for    475     39.
 Iteration    1 A^-1*A deviation from unit magnitude is 2.55D-15 for    328.
 Iteration    1 A^-1*A deviation from orthogonality  is 1.04D-15 for    402     23.
 E= -276.977768286542    
 DIIS: error= 2.20D-02 at cycle   1 NSaved=   1.
 NSaved= 1 IEnMin= 1 EnMin= -276.977768286542     IErMin= 1 ErrMin= 2.20D-02
 ErrMax= 2.20D-02  0.00D+00 EMaxC= 1.00D-01 BMatC= 4.64D-02 BMatP= 4.64D-02
 IDIUse=3 WtCom= 7.80D-01 WtEn= 2.20D-01
 Coeff-Com:  0.100D+01
 Coeff-En:   0.100D+01
 Coeff:      0.100D+01
 Gap=     0.398 Goal=   None    Shift=    0.000
 GapD=    0.398 DampG=1.000 DampE=0.500 DampFc=0.5000 IDamp=-1.
 Damping current iteration by 5.00D-01
 RMSDP=3.72D-03 MaxDP=4.53D-02              OVMax= 6.42D-02

 Cycle   2  Pass 1  IDiag  1:
 E= -276.995673096409     Delta-E=       -0.017904809867 Rises=F Damp=T
 DIIS: error= 1.03D-02 at cycle   2 NSaved=   2.
 NSaved= 2 IEnMin= 2 EnMin= -276.995673096409     IErMin= 2 ErrMin= 1.03D-02
 ErrMax= 1.03D-02  0.00D+00 EMaxC= 1.00D-01 BMatC= 7.03D-03 BMatP= 4.64D-02
 IDIUse=3 WtCom= 8.97D-01 WtEn= 1.03D-01
 Coeff-Com: -0.467D+00 0.147D+01
 Coeff-En:   0.000D+00 0.100D+01
 Coeff:     -0.419D+00 0.142D+01
 Gap=     0.393 Goal=   None    Shift=    0.000
 RMSDP=1.14D-03 MaxDP=1.66D-02 DE=-1.79D-02 OVMax= 2.03D-02

 Cycle   3  Pass 1  IDiag  1:
 E= -277.010825168231     Delta-E=       -0.015152071822 Rises=F Damp=F
 DIIS: error= 1.39D-03 at cycle   3 NSaved=   3.
 NSaved= 3 IEnMin= 3 EnMin= -277.010825168231     IErMin= 3 ErrMin= 1.39D-03
 ErrMax= 1.39D-03  0.00D+00 EMaxC= 1.00D-01 BMatC= 1.42D-04 BMatP= 7.03D-03
 IDIUse=3 WtCom= 9.86D-01 WtEn= 1.39D-02
 Coeff-Com: -0.103D+00 0.220D+00 0.883D+00
 Coeff-En:   0.000D+00 0.000D+00 0.100D+01
 Coeff:     -0.102D+00 0.217D+00 0.885D+00
 Gap=     0.392 Goal=   None    Shift=    0.000
 RMSDP=1.52D-04 MaxDP=1.75D-03 DE=-1.52D-02 OVMax= 2.45D-03

 Cycle   4  Pass 1  IDiag  1:
 E= -277.010940613516     Delta-E=       -0.000115445285 Rises=F Damp=F
 DIIS: error= 3.13D-04 at cycle   4 NSaved=   4.
 NSaved= 4 IEnMin= 4 EnMin= -277.010940613516     IErMin= 4 ErrMin= 3.13D-04
 ErrMax= 3.13D-04  0.00D+00 EMaxC= 1.00D-01 BMatC= 4.53D-06 BMatP= 1.42D-04
 IDIUse=3 WtCom= 9.97D-01 WtEn= 3.13D-03
 Coeff-Com: -0.122D-01 0.217D-01 0.174D+00 0.816D+00
 Coeff-En:   0.000D+00 0.000D+00 0.000D+00 0.100D+01
 Coeff:     -0.122D-01 0.217D-01 0.173D+00 0.817D+00
 Gap=     0.392 Goal=   None    Shift=    0.000
 RMSDP=3.46D-05 MaxDP=4.39D-04 DE=-1.15D-04 OVMax= 9.07D-04

 Cycle   5  Pass 1  IDiag  1:
 E= -277.010943366699     Delta-E=       -0.000002753183 Rises=F Damp=F
 DIIS: error= 1.69D-04 at cycle   5 NSaved=   5.
 NSaved= 5 IEnMin= 5 EnMin= -277.010943366699     IErMin= 5 ErrMin= 1.69D-04
 ErrMax= 1.69D-04  0.00D+00 EMaxC= 1.00D-01 BMatC= 1.97D-06 BMatP= 4.53D-06
 IDIUse=3 WtCom= 9.98D-01 WtEn= 1.69D-03
 Coeff-Com:  0.121D-02-0.577D-02 0.178D-01 0.414D+00 0.573D+00
 Coeff-En:   0.000D+00 0.000D+00 0.000D+00 0.829D-01 0.917D+00
 Coeff:      0.121D-02-0.576D-02 0.177D-01 0.413D+00 0.573D+00
 Gap=     0.392 Goal=   None    Shift=    0.000
 RMSDP=1.58D-05 MaxDP=1.75D-04 DE=-2.75D-06 OVMax= 1.96D-04

 Cycle   6  Pass 1  IDiag  1:
 E= -277.010944636859     Delta-E=       -0.000001270160 Rises=F Damp=F
 DIIS: error= 2.43D-05 at cycle   6 NSaved=   6.
 NSaved= 6 IEnMin= 6 EnMin= -277.010944636859     IErMin= 6 ErrMin= 2.43D-05
 ErrMax= 2.43D-05  0.00D+00 EMaxC= 1.00D-01 BMatC= 1.49D-08 BMatP= 1.97D-06
 IDIUse=1 WtCom= 1.00D+00 WtEn= 0.00D+00
 Coeff-Com:  0.129D-02-0.244D-02-0.183D-01-0.477D-01 0.115D-02 0.107D+01
 Coeff:      0.129D-02-0.244D-02-0.183D-01-0.477D-01 0.115D-02 0.107D+01
 Gap=     0.392 Goal=   None    Shift=    0.000
 RMSDP=5.04D-06 MaxDP=6.46D-05 DE=-1.27D-06 OVMax= 1.10D-04

 Cycle   7  Pass 1  IDiag  1:
 E= -277.010944669706     Delta-E=       -0.000000032847 Rises=F Damp=F
 DIIS: error= 1.51D-06 at cycle   7 NSaved=   7.
 NSaved= 7 IEnMin= 7 EnMin= -277.010944669706     IErMin= 7 ErrMin= 1.51D-06
 ErrMax= 1.51D-06  0.00D+00 EMaxC= 1.00D-01 BMatC= 1.56D-10 BMatP= 1.49D-08
 IDIUse=1 WtCom= 1.00D+00 WtEn= 0.00D+00
 Coeff-Com: -0.929D-04 0.205D-03 0.385D-03-0.191D-02-0.687D-02-0.369D-01
 Coeff-Com:  0.105D+01
 Coeff:     -0.929D-04 0.205D-03 0.385D-03-0.191D-02-0.687D-02-0.369D-01
 Coeff:      0.105D+01
 Gap=     0.392 Goal=   None    Shift=    0.000
 RMSDP=6.13D-07 MaxDP=9.50D-06 DE=-3.28D-08 OVMax= 6.91D-06

 Cycle   8  Pass 1  IDiag  1:
 E= -277.010944670009     Delta-E=       -0.000000000302 Rises=F Damp=F
 DIIS: error= 3.88D-07 at cycle   8 NSaved=   8.
 NSaved= 8 IEnMin= 8 EnMin= -277.010944670009     IErMin= 8 ErrMin= 3.88D-07
 ErrMax= 3.88D-07  0.00D+00 EMaxC= 1.00D-01 BMatC= 6.59D-12 BMatP= 1.56D-10
 IDIUse=1 WtCom= 1.00D+00 WtEn= 0.00D+00
 Coeff-Com: -0.368D-04 0.710D-04 0.496D-03 0.134D-02 0.774D-03-0.326D-01
 Coeff-Com: -0.322D-02 0.103D+01
 Coeff:     -0.368D-04 0.710D-04 0.496D-03 0.134D-02 0.774D-03-0.326D-01
 Coeff:     -0.322D-02 0.103D+01
 Gap=     0.392 Goal=   None    Shift=    0.000
 RMSDP=9.48D-08 MaxDP=1.46D-06 DE=-3.02D-10 OVMax= 1.43D-06

 Cycle   9  Pass 1  IDiag  1:
 E= -277.010944670020     Delta-E=       -0.000000000011 Rises=F Damp=F
 DIIS: error= 3.01D-08 at cycle   9 NSaved=   9.
 NSaved= 9 IEnMin= 9 EnMin= -277.010944670020     IErMin= 9 ErrMin= 3.01D-08
 ErrMax= 3.01D-08  0.00D+00 EMaxC= 1.00D-01 BMatC= 8.93D-14 BMatP= 6.59D-12
 IDIUse=1 WtCom= 1.00D+00 WtEn= 0.00D+00
 Coeff-Com:  0.421D-05-0.883D-05-0.288D-04-0.144D-04 0.176D-03 0.208D-02
 Coeff-Com: -0.193D-01-0.484D-01 0.107D+01
 Coeff:      0.421D-05-0.883D-05-0.288D-04-0.144D-04 0.176D-03 0.208D-02
 Coeff:     -0.193D-01-0.484D-01 0.107D+01
 Gap=     0.392 Goal=   None    Shift=    0.000
 RMSDP=8.96D-09 MaxDP=7.60D-08 DE=-1.10D-11 OVMax= 1.96D-07

 Error on total polarization charges =  0.00945
 SCF Done:  E(RM052X) =  -277.010944670     A.U. after    9 cycles
            NFock=  9  Conv=0.90D-08     -V/T= 2.0075
 KE= 2.749599709339D+02 PE=-8.767402785859D+02 EE= 2.141310167682D+02
 SMD-CDS (non-electrostatic) energy       (kcal/mol) =       2.01
 (included in total energy above)
 Leave Link  502 at Thu Jul 10 14:45:23 2025, MaxMem=  2684354560 cpu:              35.8 elap:               1.9
 (Enter /apps/gaussian/g16c01/g16/l601.exe)
 Copying SCF densities to generalized density rwf, IOpCl= 0 IROHF=0.

 **********************************************************************

            Population analysis using the SCF Density.

 **********************************************************************

 Orbital symmetries:
       Occupied  (A) (A) (A) (A) (A) (A) (A) (A) (A) (A) (A) (A)
                 (A) (A) (A) (A)
       Virtual   (A) (A) (A) (A) (A) (A) (A) (A) (A) (A) (A) (A)
                 (A) (A) (A) (A) (A) (A) (A) (A) (A) (A) (A) (A)
                 (A) (A) (A) (A) (A) (A) (A) (A) (A) (A) (A) (A)
                 (A) (A) (A) (A) (A) (A) (A) (A) (A) (A) (A) (A)
 The electronic state is 1-A.
 Alpha  occ. eigenvalues --  -25.31399 -25.31399 -10.65873 -10.65747  -1.35652
 Alpha  occ. eigenvalues --   -1.35154  -0.88035  -0.71352  -0.63374  -0.62061
 Alpha  occ. eigenvalues --   -0.56847  -0.55873  -0.54330  -0.49559  -0.44717
 Alpha  occ. eigenvalues --   -0.31483
 Alpha virt. eigenvalues --    0.07729   0.14010   0.21085   0.22174   0.32899
 Alpha virt. eigenvalues --    0.42204   0.57536   0.58011   0.63648   0.66326
 Alpha virt. eigenvalues --    0.67787   0.69602   0.93713   0.94289   1.05227
 Alpha virt. eigenvalues --    1.07212   1.19744   1.28188   1.30414   1.31835
 Alpha virt. eigenvalues --    1.43991   1.44812   1.47115   1.53129   1.66125
 Alpha virt. eigenvalues --    1.67652   1.84880   1.86397   1.87401   1.89422
 Alpha virt. eigenvalues --    1.95357   1.99760   2.03662   2.07627   2.08300
 Alpha virt. eigenvalues --    2.25213   2.36058   2.42111   2.57127   2.59097
 Alpha virt. eigenvalues --    2.85893   2.90435   3.11728   3.22124   4.13120
 Alpha virt. eigenvalues --    4.27389   4.29247   4.54302
          Condensed to atoms (all electrons):
               1          2          3          4          5          6
     1  C    4.849456   0.536138   0.373636   0.260682  -0.057745  -0.032217
     2  C    0.536138   4.849456  -0.057745  -0.032217   0.373636   0.260682
     3  H    0.373636  -0.057745   0.480677  -0.030299   0.003188   0.000574
     4  F    0.260682  -0.032217  -0.030299   9.100993   0.000574   0.000287
     5  H   -0.057745   0.373636   0.003188   0.000574   0.480677  -0.030299
     6  F   -0.032217   0.260682   0.000574   0.000287  -0.030299   9.100993
 Mulliken charges:
               1
     1  C    0.070050
     2  C    0.070050
     3  H    0.229970
     4  F   -0.300019
     5  H    0.229970
     6  F   -0.300019
 Sum of Mulliken charges =  -0.00000
 Mulliken charges with hydrogens summed into heavy atoms:
               1
     1  C    0.300019
     2  C    0.300019
     4  F   -0.300019
     6  F   -0.300019
 Electronic spatial extent (au):  <R**2>=            287.8894
 Charge=             -0.0000 electrons
 Dipole moment (field-independent basis, Debye):
    X=              0.0000    Y=             -0.0000    Z=              0.0000  Tot=              0.0000
 Quadrupole moment (field-independent basis, Debye-Ang):
   XX=            -26.0870   YY=            -17.4802   ZZ=            -21.9515
   XY=              1.7667   XZ=             -0.0001   YZ=             -0.0000
 Traceless Quadrupole moment (field-independent basis, Debye-Ang):
   XX=             -4.2474   YY=              4.3594   ZZ=             -0.1119
   XY=              1.7667   XZ=             -0.0001   YZ=             -0.0000
 Octapole moment (field-independent basis, Debye-Ang**2):
  XXX=              0.0000  YYY=             -0.0000  ZZZ=             -0.0004  XYY=              0.0000
  XXY=             -0.0000  XXZ=             -0.0000  XZZ=              0.0000  YZZ=             -0.0000
  YYZ=             -0.0001  XYZ=              0.0000
 Hexadecapole moment (field-independent basis, Debye-Ang**3):
 XXXX=           -228.3485 YYYY=            -33.9813 ZZZZ=            -17.9183 XXXY=             -2.4073
 XXXZ=             -0.0016 YYYX=             -0.1979 YYYZ=              0.0000 ZZZX=             -0.0013
 ZZZY=              0.0001 XXYY=            -41.3014 XXZZ=            -38.0621 YYZZ=            -10.5845
 XXYZ=              0.0000 YYXZ=             -0.0005 ZZXY=             -1.1399
 N-N= 1.106383462138D+02 E-N=-8.767402799084D+02  KE= 2.749599709339D+02
 No NMR shielding tensors so no spin-rotation constants.
 Leave Link  601 at Thu Jul 10 14:45:24 2025, MaxMem=  2684354560 cpu:               7.3 elap:               0.8
 (Enter /apps/gaussian/g16c01/g16/l9999.exe)
 Unable to Open any file for archive entry.
 1\1\GINC-GADI-CPU-CLX-0270\SP\RM052X\6-31G(d)\C2H2F2\YR9300\10-Jul-202
 5\0\\#P M052X/6-31G* scrf(SMD,solvent=n-octanol)\\H2F2_iso2_wat_M05-2x
 \\0,1\C,0,0.525274,0.400479,0.000024\C,0,-0.525274,-0.400479,0.000019\
 H,0,0.502575,1.482205,-0.000004\F,0,1.772586,-0.12581,0.000012\H,0,-0.
 502575,-1.482205,0.000018\F,0,-1.772586,0.12581,-0.000042\\Version=ES6
 4L-G16RevC.01\State=1-A\HF=-277.0109447\RMSD=8.955e-09\Dipole=0.,0.,0.
 0000131\Quadrupole=-3.1578623,3.2410778,-0.0832155,1.3135295,-0.000060
 3,-0.000022\PG=C01 [X(C2H2F2)]\\@
 The archive entry for this job was punched.


 A BIRD IN THE HAND IS SAFER THAN ONE OVERHEAD.

                       -- NEWTON'S SEVENTH LAW
 Job cpu time:       0 days  0 hours  1 minutes  8.8 seconds.
 Elapsed time:       0 days  0 hours  0 minutes  4.7 seconds.
 File lengths (MBytes):  RWF=     13 Int=      0 D2E=      0 Chk=      2 Scr=      1
 Normal termination of Gaussian 16 at Thu Jul 10 14:45:24 2025.
