 Entering Gaussian System, Link 0=g16
 Initial command:
 /apps/gaussian/g16c01/g16/l1.exe "/jobfs/145007322.gadi-pbs/Gau-2983722.inp" -scrdir="/jobfs/145007322.gadi-pbs/"
 Entering Link 1 = /apps/gaussian/g16c01/g16/l1.exe PID=   2983723.
  
 Copyright (c) 1988-2019, Gaussian, Inc.  All Rights Reserved.
  
 This is part of the Gaussian(R) 16 program.  It is based on
 the Gaussian(R) 09 system (copyright 2009, Gaussian, Inc.),
 the Gaussian(R) 03 system (copyright 2003, Gaussian, Inc.),
 the Gaussian(R) 98 system (copyright 1998, Gaussian, Inc.),
 the Gaussian(R) 94 system (copyright 1995, Gaussian, Inc.),
 the Gaussian 92(TM) system (copyright 1992, Gaussian, Inc.),
 the Gaussian 90(TM) system (copyright 1990, Gaussian, Inc.),
 the Gaussian 88(TM) system (copyright 1988, Gaussian, Inc.),
 the Gaussian 86(TM) system (copyright 1986, Carnegie Mellon
 University), and the Gaussian 82(TM) system (copyright 1983,
 Carnegie Mellon University). Gaussian is a federally registered
 trademark of Gaussian, Inc.
  
 This software contains proprietary and confidential information,
 including trade secrets, belonging to Gaussian, Inc.
  
 This software is provided under written license and may be
 used, copied, transmitted, or stored only in accord with that
 written license.
  
 The following legend is applicable only to US Government
 contracts under FAR:
  
                    RESTRICTED RIGHTS LEGEND
  
 Use, reproduction and disclosure by the US Government is
 subject to restrictions as set forth in subparagraphs (a)
 and (c) of the Commercial Computer Software - Restricted
 Rights clause in FAR 52.227-19.
  
 Gaussian, Inc.
 340 Quinnipiac St., Bldg. 40, Wallingford CT 06492
  
  
 ---------------------------------------------------------------
 Warning -- This program may not be used in any manner that
 competes with the business of Gaussian, Inc. or will provide
 assistance to any competitor of Gaussian, Inc.  The licensee
 of this program is prohibited from giving any competitor of
 Gaussian, Inc. access to this program.  By using this program,
 the user acknowledges that Gaussian, Inc. is engaged in the
 business of creating and licensing software in the field of
 computational chemistry and represents and warrants to the
 licensee that it is not a competitor of Gaussian, Inc. and that
 it will not use this program in any manner prohibited above.
 ---------------------------------------------------------------
  

 Cite this work as:
 Gaussian 16, Revision C.01,
 M. J. Frisch, G. W. Trucks, H. B. Schlegel, G. E. Scuseria, 
 M. A. Robb, J. R. Cheeseman, G. Scalmani, V. Barone, 
 G. A. Petersson, H. Nakatsuji, X. Li, M. Caricato, A. V. Marenich, 
 J. Bloino, B. G. Janesko, R. Gomperts, B. Mennucci, H. P. Hratchian, 
 J. V. Ortiz, A. F. Izmaylov, J. L. Sonnenberg, D. Williams-Young, 
 F. Ding, F. Lipparini, F. Egidi, J. Goings, B. Peng, A. Petrone, 
 T. Henderson, D. Ranasinghe, V. G. Zakrzewski, J. Gao, N. Rega, 
 G. Zheng, W. Liang, M. Hada, M. Ehara, K. Toyota, R. Fukuda, 
 J. Hasegawa, M. Ishida, T. Nakajima, Y. Honda, O. Kitao, H. Nakai, 
 T. Vreven, K. Throssell, J. A. Montgomery, Jr., J. E. Peralta, 
 F. Ogliaro, M. J. Bearpark, J. J. Heyd, E. N. Brothers, K. N. Kudin, 
 V. N. Staroverov, T. A. Keith, R. Kobayashi, J. Normand, 
 K. Raghavachari, A. P. Rendell, J. C. Burant, S. S. Iyengar, 
 J. Tomasi, M. Cossi, J. M. Millam, M. Klene, C. Adamo, R. Cammi, 
 J. W. Ochterski, R. L. Martin, K. Morokuma, O. Farkas, 
 J. B. Foresman, and D. J. Fox, Gaussian, Inc., Wallingford CT, 2019.
 
 ******************************************
 Gaussian 16:  ES64L-G16RevC.01  3-Jul-2019
                10-Jul-2025 
 ******************************************
 %chk=H2F2_iso2_oct_vaccum_M05-2x.chk
 %mem=20GB
 %nprocshared=20
 Will use up to   20 processors via shared memory.
 ---------------
 #P M052X/6-31G*
 ---------------
 1/38=1,172=1/1;
 2/12=2,17=6,18=5,40=1/2;
 3/5=1,6=6,7=1,11=2,25=1,30=1,74=-38/1,2,3;
 4//1;
 5/5=2,38=5/2;
 6/7=2,8=2,9=2,10=2,28=1/1;
 99/5=1,9=1/99;
 Leave Link    1 at Thu Jul 10 14:22:00 2025, MaxMem=  2684354560 cpu:               1.2 elap:               0.1
 (Enter /apps/gaussian/g16c01/g16/l101.exe)
 ---------------------------
 H2F2_iso2_oct_vaccum_M05-2x
 ---------------------------
 Symbolic Z-matrix:
 Charge =  0 Multiplicity = 1
 C                     0.5258    0.39971   0.00002 
 C                    -0.5258   -0.39971   0.00001 
 H                     0.50329   1.48206  -0.00001 
 F                     1.77269  -0.12579   0.00002 
 H                    -0.50329  -1.48206   0.00002 
 F                    -1.77269   0.12579  -0.00004 
 
 ITRead=  0  0  0  0  0  0
 MicOpt= -1 -1 -1 -1 -1 -1
 NAtoms=      6 NQM=        6 NQMF=       0 NMMI=      0 NMMIF=      0
                NMic=       0 NMicF=      0.
                    Isotopes and Nuclear Properties:
 (Nuclear quadrupole moments (NQMom) in fm**2, nuclear magnetic moments (NMagM)
  in nuclear magnetons)

  Atom         1           2           3           4           5           6
 IAtWgt=          12          12           1          19           1          19
 AtmWgt=  12.0000000  12.0000000   1.0078250  18.9984033   1.0078250  18.9984033
 NucSpn=           0           0           1           1           1           1
 AtZEff=  -0.0000000  -0.0000000  -0.0000000  -0.0000000  -0.0000000  -0.0000000
 NQMom=    0.0000000   0.0000000   0.0000000   0.0000000   0.0000000   0.0000000
 NMagM=    0.0000000   0.0000000   2.7928460   2.6288670   2.7928460   2.6288670
 AtZNuc=   6.0000000   6.0000000   1.0000000   9.0000000   1.0000000   9.0000000
 Leave Link  101 at Thu Jul 10 14:22:00 2025, MaxMem=  2684354560 cpu:               2.1 elap:               0.2
 (Enter /apps/gaussian/g16c01/g16/l202.exe)
                          Input orientation:                          
 ---------------------------------------------------------------------
 Center     Atomic      Atomic             Coordinates (Angstroms)
 Number     Number       Type             X           Y           Z
 ---------------------------------------------------------------------
      1          6           0        0.525803    0.399709    0.000017
      2          6           0       -0.525803   -0.399709    0.000013
      3          1           0        0.503287    1.482057   -0.000006
      4          9           0        1.772691   -0.125792    0.000017
      5          1           0       -0.503287   -1.482057    0.000016
      6          9           0       -1.772691    0.125792   -0.000038
 ---------------------------------------------------------------------
                    Distance matrix (angstroms):
                    1          2          3          4          5
     1  C    0.000000
     2  C    1.320963   0.000000
     3  H    1.082582   2.144777   0.000000
     4  F    1.353101   2.314758   2.048552   0.000000
     5  H    2.144777   1.082582   3.130361   2.649440   0.000000
     6  F    2.314758   1.353101   2.649440   3.554297   2.048552
                    6
     6  F    0.000000
 Stoichiometry    C2H2F2
 Framework group  C1[X(C2H2F2)]
 Deg. of freedom    12
 Full point group                 C1      NOp   1
 Largest Abelian subgroup         C1      NOp   1
 Largest concise Abelian subgroup C1      NOp   1
                         Standard orientation:                         
 ---------------------------------------------------------------------
 Center     Atomic      Atomic             Coordinates (Angstroms)
 Number     Number       Type             X           Y           Z
 ---------------------------------------------------------------------
      1          6           0        0.525803    0.399709    0.000017
      2          6           0       -0.525803   -0.399709    0.000013
      3          1           0        0.503287    1.482057   -0.000006
      4          9           0        1.772691   -0.125792    0.000017
      5          1           0       -0.503287   -1.482057    0.000016
      6          9           0       -1.772691    0.125792   -0.000038
 ---------------------------------------------------------------------
 Rotational constants (GHZ):          57.2243959           3.9925743           3.7321784
 Leave Link  202 at Thu Jul 10 14:22:00 2025, MaxMem=  2684354560 cpu:               0.0 elap:               0.0
 (Enter /apps/gaussian/g16c01/g16/l301.exe)
 Standard basis: 6-31G(d) (6D, 7F)
 Ernie: Thresh=  0.10000D-02 Tol=  0.10000D-05 Strict=F.
 There are    64 symmetry adapted cartesian basis functions of A   symmetry.
 There are    64 symmetry adapted basis functions of A   symmetry.
    64 basis functions,   120 primitive gaussians,    64 cartesian basis functions
    16 alpha electrons       16 beta electrons
       nuclear repulsion energy       110.6486336805 Hartrees.
 IExCor= 3428 DFT=T Ex+Corr=M052X ExCW=0 ScaHFX=  0.560000
 ScaDFX=  0.440000  0.440000  1.000000  1.000000 ScalE2=  1.000000  1.000000
 IRadAn=      5 IRanWt=     -1 IRanGd=            0 ICorTp=0 IEmpDi=  4
 NAtoms=    6 NActive=    6 NUniq=    6 SFac= 1.00D+00 NAtFMM=   60 NAOKFM=F Big=F
 Integral buffers will be    131072 words long.
 Raffenetti 2 integral format.
 Two-electron integral symmetry is turned on.
 Leave Link  301 at Thu Jul 10 14:22:01 2025, MaxMem=  2684354560 cpu:               0.9 elap:               0.0
 (Enter /apps/gaussian/g16c01/g16/l302.exe)
 NPDir=0 NMtPBC=     1 NCelOv=     1 NCel=       1 NClECP=     1 NCelD=      1
         NCelK=      1 NCelE2=     1 NClLst=     1 CellRange=     0.0.
 One-electron integrals computed using PRISM.
 One-electron integral symmetry used in STVInt
 NBasis=    64 RedAO= T EigKep=  4.04D-03  NBF=    64
 NBsUse=    64 1.00D-06 EigRej= -1.00D+00 NBFU=    64
 Precomputing XC quadrature grid using
 IXCGrd= 4 IRadAn=           5 IRanWt=          -1 IRanGd=           0 AccXCQ= 0.00D+00.
 Generated NRdTot=       0 NPtTot=           0 NUsed=           0 NTot=          32
 NSgBfM=    64    64    64    64    64 MxSgAt=     6 MxSgA2=     6.
 Leave Link  302 at Thu Jul 10 14:22:01 2025, MaxMem=  2684354560 cpu:               1.9 elap:               0.1
 (Enter /apps/gaussian/g16c01/g16/l303.exe)
 DipDrv:  MaxL=1.
 Leave Link  303 at Thu Jul 10 14:22:01 2025, MaxMem=  2684354560 cpu:               0.5 elap:               0.0
 (Enter /apps/gaussian/g16c01/g16/l401.exe)
 ExpMin= 1.61D-01 ExpMax= 7.00D+03 ExpMxC= 1.05D+03 IAcc=3 IRadAn=         5 AccDes= 0.00D+00
 Harris functional with IExCor= 1009 and IRadAn=       5 diagonalized for initial guess.
 HarFok:  IExCor= 1009 AccDes= 0.00D+00 IRadAn=         5 IDoV= 1 UseB2=F ITyADJ=14
 ICtDFT=  3500011 ScaDFX=  1.000000  1.000000  1.000000  1.000000
 FoFCou: FMM=F IPFlag=           0 FMFlag=      100000 FMFlg1=           0
         NFxFlg=           0 DoJE=T BraDBF=F KetDBF=T FulRan=T
         wScrn=  0.000000 ICntrl=       500 IOpCl=  0 I1Cent=   200000004 NGrid=           0
         NMat0=    1 NMatS0=      1 NMatT0=    0 NMatD0=    1 NMtDS0=    0 NMtDT0=    0
 Petite list used in FoFCou.
 Harris En= -276.773150338829    
 JPrj=0 DoOrth=F DoCkMO=F.
 Leave Link  401 at Thu Jul 10 14:22:01 2025, MaxMem=  2684354560 cpu:               2.5 elap:               0.1
 (Enter /apps/gaussian/g16c01/g16/l502.exe)
 Keep R1 ints in memory in canonical form, NReq=19962716.
 FoFCou: FMM=F IPFlag=           0 FMFlag=           0 FMFlg1=           0
         NFxFlg=           0 DoJE=F BraDBF=F KetDBF=F FulRan=T
         wScrn=  0.000000 ICntrl=       600 IOpCl=  0 I1Cent=           0 NGrid=           0
         NMat0=    1 NMatS0=   2080 NMatT0=    0 NMatD0=    1 NMtDS0=    0 NMtDT0=    0
 Symmetry not used in FoFCou.
 Two-electron integral symmetry not used.
 Closed shell SCF:
 Using DIIS extrapolation, IDIIS=  1040.
 NGot=  2684354560 LenX=  2682179902 LenY=  2682175365
 Requested convergence on RMS density matrix=1.00D-08 within 128 cycles.
 Requested convergence on MAX density matrix=1.00D-06.
 Requested convergence on             energy=1.00D-06.
 No special actions if energy rises.
 Integral accuracy reduced to 1.0D-05 until final iterations.

 Cycle   1  Pass 0  IDiag  1:
 E= -276.975498511368    
 DIIS: error= 2.16D-02 at cycle   1 NSaved=   1.
 NSaved= 1 IEnMin= 1 EnMin= -276.975498511368     IErMin= 1 ErrMin= 2.16D-02
 ErrMax= 2.16D-02  0.00D+00 EMaxC= 1.00D-01 BMatC= 4.70D-02 BMatP= 4.70D-02
 IDIUse=3 WtCom= 7.84D-01 WtEn= 2.16D-01
 Coeff-Com:  0.100D+01
 Coeff-En:   0.100D+01
 Coeff:      0.100D+01
 Gap=     0.395 Goal=   None    Shift=    0.000
 GapD=    0.395 DampG=1.000 DampE=0.500 DampFc=0.5000 IDamp=-1.
 Damping current iteration by 5.00D-01
 RMSDP=3.81D-03 MaxDP=4.43D-02              OVMax= 6.30D-02

 Cycle   2  Pass 0  IDiag  1:
 E= -276.993696999130     Delta-E=       -0.018198487762 Rises=F Damp=T
 DIIS: error= 1.03D-02 at cycle   2 NSaved=   2.
 NSaved= 2 IEnMin= 2 EnMin= -276.993696999130     IErMin= 2 ErrMin= 1.03D-02
 ErrMax= 1.03D-02  0.00D+00 EMaxC= 1.00D-01 BMatC= 6.90D-03 BMatP= 4.70D-02
 IDIUse=3 WtCom= 8.97D-01 WtEn= 1.03D-01
 Coeff-Com: -0.441D+00 0.144D+01
 Coeff-En:   0.000D+00 0.100D+01
 Coeff:     -0.396D+00 0.140D+01
 Gap=     0.391 Goal=   None    Shift=    0.000
 RMSDP=1.06D-03 MaxDP=1.60D-02 DE=-1.82D-02 OVMax= 2.05D-02

 Cycle   3  Pass 0  IDiag  1:
 E= -277.009004696704     Delta-E=       -0.015307697573 Rises=F Damp=F
 DIIS: error= 1.26D-03 at cycle   3 NSaved=   3.
 NSaved= 3 IEnMin= 3 EnMin= -277.009004696704     IErMin= 3 ErrMin= 1.26D-03
 ErrMax= 1.26D-03  0.00D+00 EMaxC= 1.00D-01 BMatC= 1.48D-04 BMatP= 6.90D-03
 IDIUse=3 WtCom= 9.87D-01 WtEn= 1.26D-02
 Coeff-Com: -0.990D-01 0.217D+00 0.882D+00
 Coeff-En:   0.000D+00 0.000D+00 0.100D+01
 Coeff:     -0.977D-01 0.215D+00 0.883D+00
 Gap=     0.390 Goal=   None    Shift=    0.000
 RMSDP=1.60D-04 MaxDP=1.63D-03 DE=-1.53D-02 OVMax= 2.12D-03

 Cycle   4  Pass 0  IDiag  1:
 E= -277.009119558771     Delta-E=       -0.000114862067 Rises=F Damp=F
 DIIS: error= 3.86D-04 at cycle   4 NSaved=   4.
 NSaved= 4 IEnMin= 4 EnMin= -277.009119558771     IErMin= 4 ErrMin= 3.86D-04
 ErrMax= 3.86D-04  0.00D+00 EMaxC= 1.00D-01 BMatC= 7.19D-06 BMatP= 1.48D-04
 IDIUse=3 WtCom= 9.96D-01 WtEn= 3.86D-03
 Coeff-Com: -0.145D-01 0.279D-01 0.216D+00 0.770D+00
 Coeff-En:   0.000D+00 0.000D+00 0.000D+00 0.100D+01
 Coeff:     -0.144D-01 0.278D-01 0.215D+00 0.771D+00
 Gap=     0.390 Goal=   None    Shift=    0.000
 RMSDP=3.83D-05 MaxDP=5.40D-04 DE=-1.15D-04 OVMax= 1.01D-03

 Cycle   5  Pass 0  IDiag  1:
 E= -277.009123228827     Delta-E=       -0.000003670057 Rises=F Damp=F
 DIIS: error= 1.73D-04 at cycle   5 NSaved=   5.
 NSaved= 5 IEnMin= 5 EnMin= -277.009123228827     IErMin= 5 ErrMin= 1.73D-04
 ErrMax= 1.73D-04  0.00D+00 EMaxC= 1.00D-01 BMatC= 2.53D-06 BMatP= 7.19D-06
 IDIUse=3 WtCom= 9.98D-01 WtEn= 1.73D-03
 Coeff-Com:  0.691D-03-0.448D-02 0.360D-01 0.403D+00 0.565D+00
 Coeff-En:   0.000D+00 0.000D+00 0.000D+00 0.149D+00 0.851D+00
 Coeff:      0.690D-03-0.447D-02 0.359D-01 0.403D+00 0.565D+00
 Gap=     0.390 Goal=   None    Shift=    0.000
 RMSDP=1.65D-05 MaxDP=1.95D-04 DE=-3.67D-06 OVMax= 2.23D-04

 Cycle   6  Pass 0  IDiag  1:
 E= -277.009124902195     Delta-E=       -0.000001673368 Rises=F Damp=F
 DIIS: error= 2.13D-05 at cycle   6 NSaved=   6.
 NSaved= 6 IEnMin= 6 EnMin= -277.009124902195     IErMin= 6 ErrMin= 2.13D-05
 ErrMax= 2.13D-05  0.00D+00 EMaxC= 1.00D-01 BMatC= 1.12D-08 BMatP= 2.53D-06
 IDIUse=1 WtCom= 1.00D+00 WtEn= 0.00D+00
 Coeff-Com:  0.130D-02-0.247D-02-0.165D-01-0.437D-01-0.377D-01 0.110D+01
 Coeff:      0.130D-02-0.247D-02-0.165D-01-0.437D-01-0.377D-01 0.110D+01
 Gap=     0.390 Goal=   None    Shift=    0.000
 RMSDP=3.62D-06 MaxDP=3.49D-05 DE=-1.67D-06 OVMax= 1.18D-04

 Initial convergence to 1.0D-05 achieved.  Increase integral accuracy.
 Cycle   7  Pass 1  IDiag  1:
 E= -277.009172936184     Delta-E=       -0.000048033989 Rises=F Damp=F
 DIIS: error= 3.72D-05 at cycle   1 NSaved=   1.
 NSaved= 1 IEnMin= 1 EnMin= -277.009172936184     IErMin= 1 ErrMin= 3.72D-05
 ErrMax= 3.72D-05  0.00D+00 EMaxC= 1.00D-01 BMatC= 7.12D-08 BMatP= 7.12D-08
 IDIUse=1 WtCom= 1.00D+00 WtEn= 0.00D+00
 Coeff-Com:  0.100D+01
 Coeff:      0.100D+01
 Gap=     0.390 Goal=   None    Shift=    0.000
 RMSDP=3.62D-06 MaxDP=3.49D-05 DE=-4.80D-05 OVMax= 4.83D-05

 Cycle   8  Pass 1  IDiag  1:
 E= -277.009172994446     Delta-E=       -0.000000058262 Rises=F Damp=F
 DIIS: error= 8.08D-06 at cycle   2 NSaved=   2.
 NSaved= 2 IEnMin= 2 EnMin= -277.009172994446     IErMin= 2 ErrMin= 8.08D-06
 ErrMax= 8.08D-06  0.00D+00 EMaxC= 1.00D-01 BMatC= 4.91D-09 BMatP= 7.12D-08
 IDIUse=1 WtCom= 1.00D+00 WtEn= 0.00D+00
 Coeff-Com:  0.543D-01 0.946D+00
 Coeff:      0.543D-01 0.946D+00
 Gap=     0.390 Goal=   None    Shift=    0.000
 RMSDP=1.72D-06 MaxDP=2.24D-05 DE=-5.83D-08 OVMax= 1.83D-05

 Cycle   9  Pass 1  IDiag  1:
 E= -277.009172995484     Delta-E=       -0.000000001038 Rises=F Damp=F
 DIIS: error= 7.83D-06 at cycle   3 NSaved=   3.
 NSaved= 3 IEnMin= 3 EnMin= -277.009172995484     IErMin= 3 ErrMin= 7.83D-06
 ErrMax= 7.83D-06  0.00D+00 EMaxC= 1.00D-01 BMatC= 4.03D-09 BMatP= 4.91D-09
 IDIUse=1 WtCom= 1.00D+00 WtEn= 0.00D+00
 Coeff-Com: -0.428D-01 0.483D+00 0.559D+00
 Coeff:     -0.428D-01 0.483D+00 0.559D+00
 Gap=     0.390 Goal=   None    Shift=    0.000
 RMSDP=5.69D-07 MaxDP=9.01D-06 DE=-1.04D-09 OVMax= 1.15D-05

 Cycle  10  Pass 1  IDiag  1:
 E= -277.009172997848     Delta-E=       -0.000000002363 Rises=F Damp=F
 DIIS: error= 7.62D-07 at cycle   4 NSaved=   4.
 NSaved= 4 IEnMin= 4 EnMin= -277.009172997848     IErMin= 4 ErrMin= 7.62D-07
 ErrMax= 7.62D-07  0.00D+00 EMaxC= 1.00D-01 BMatC= 3.34D-11 BMatP= 4.03D-09
 IDIUse=1 WtCom= 1.00D+00 WtEn= 0.00D+00
 Coeff-Com: -0.105D-01 0.672D-01 0.127D+00 0.816D+00
 Coeff:     -0.105D-01 0.672D-01 0.127D+00 0.816D+00
 Gap=     0.390 Goal=   None    Shift=    0.000
 RMSDP=1.25D-07 MaxDP=1.46D-06 DE=-2.36D-09 OVMax= 1.81D-06

 Cycle  11  Pass 1  IDiag  1:
 E= -277.009172997878     Delta-E=       -0.000000000030 Rises=F Damp=F
 DIIS: error= 2.39D-07 at cycle   5 NSaved=   5.
 NSaved= 5 IEnMin= 5 EnMin= -277.009172997878     IErMin= 5 ErrMin= 2.39D-07
 ErrMax= 2.39D-07  0.00D+00 EMaxC= 1.00D-01 BMatC= 2.25D-12 BMatP= 3.34D-11
 IDIUse=1 WtCom= 1.00D+00 WtEn= 0.00D+00
 Coeff-Com:  0.124D-02-0.255D-01-0.202D-01 0.182D+00 0.863D+00
 Coeff:      0.124D-02-0.255D-01-0.202D-01 0.182D+00 0.863D+00
 Gap=     0.390 Goal=   None    Shift=    0.000
 RMSDP=3.17D-08 MaxDP=3.92D-07 DE=-3.05D-11 OVMax= 5.58D-07

 Cycle  12  Pass 1  IDiag  1:
 E= -277.009172997881     Delta-E=       -0.000000000003 Rises=F Damp=F
 DIIS: error= 2.93D-08 at cycle   6 NSaved=   6.
 NSaved= 6 IEnMin= 6 EnMin= -277.009172997881     IErMin= 6 ErrMin= 2.93D-08
 ErrMax= 2.93D-08  0.00D+00 EMaxC= 1.00D-01 BMatC= 4.53D-14 BMatP= 2.25D-12
 IDIUse=1 WtCom= 1.00D+00 WtEn= 0.00D+00
 Coeff-Com:  0.539D-03-0.600D-02-0.673D-02-0.984D-02 0.112D+00 0.910D+00
 Coeff:      0.539D-03-0.600D-02-0.673D-02-0.984D-02 0.112D+00 0.910D+00
 Gap=     0.390 Goal=   None    Shift=    0.000
 RMSDP=5.69D-09 MaxDP=6.40D-08 DE=-2.96D-12 OVMax= 6.68D-08

 SCF Done:  E(RM052X) =  -277.009172998     A.U. after   12 cycles
            NFock= 12  Conv=0.57D-08     -V/T= 2.0075
 KE= 2.749454483011D+02 PE=-8.766697049576D+02 EE= 2.140664499781D+02
 Leave Link  502 at Thu Jul 10 14:22:02 2025, MaxMem=  2684354560 cpu:              15.1 elap:               0.8
 (Enter /apps/gaussian/g16c01/g16/l601.exe)
 Copying SCF densities to generalized density rwf, IOpCl= 0 IROHF=0.

 **********************************************************************

            Population analysis using the SCF Density.

 **********************************************************************

 Orbital symmetries:
       Occupied  (A) (A) (A) (A) (A) (A) (A) (A) (A) (A) (A) (A)
                 (A) (A) (A) (A)
       Virtual   (A) (A) (A) (A) (A) (A) (A) (A) (A) (A) (A) (A)
                 (A) (A) (A) (A) (A) (A) (A) (A) (A) (A) (A) (A)
                 (A) (A) (A) (A) (A) (A) (A) (A) (A) (A) (A) (A)
                 (A) (A) (A) (A) (A) (A) (A) (A) (A) (A) (A) (A)
 The electronic state is 1-A.
 Alpha  occ. eigenvalues --  -25.31708 -25.31708 -10.66870 -10.66744  -1.35970
 Alpha  occ. eigenvalues --   -1.35457  -0.88831  -0.72116  -0.64016  -0.62595
 Alpha  occ. eigenvalues --   -0.57140  -0.56499  -0.54509  -0.50013  -0.45522
 Alpha  occ. eigenvalues --   -0.32131
 Alpha virt. eigenvalues --    0.06880   0.13099   0.19030   0.20131   0.32043
 Alpha virt. eigenvalues --    0.41185   0.56639   0.57301   0.63022   0.65659
 Alpha virt. eigenvalues --    0.66895   0.68468   0.92399   0.92723   1.04337
 Alpha virt. eigenvalues --    1.06384   1.20026   1.27987   1.30217   1.31737
 Alpha virt. eigenvalues --    1.43976   1.44290   1.47120   1.52839   1.65624
 Alpha virt. eigenvalues --    1.67190   1.84127   1.86086   1.87233   1.88955
 Alpha virt. eigenvalues --    1.95226   1.99626   2.03250   2.07149   2.07637
 Alpha virt. eigenvalues --    2.24647   2.35479   2.41446   2.56753   2.58586
 Alpha virt. eigenvalues --    2.85432   2.89739   3.11464   3.21545   4.12621
 Alpha virt. eigenvalues --    4.27101   4.29130   4.53659
          Condensed to atoms (all electrons):
               1          2          3          4          5          6
     1  C    4.830625   0.534068   0.373004   0.266770  -0.062260  -0.032064
     2  C    0.534068   4.830625  -0.062260  -0.032064   0.373004   0.266770
     3  H    0.373004  -0.062260   0.520881  -0.032101   0.003581   0.000671
     4  F    0.266770  -0.032064  -0.032101   9.082517   0.000671   0.000286
     5  H   -0.062260   0.373004   0.003581   0.000671   0.520881  -0.032101
     6  F   -0.032064   0.266770   0.000671   0.000286  -0.032101   9.082517
 Mulliken charges:
               1
     1  C    0.089857
     2  C    0.089857
     3  H    0.196223
     4  F   -0.286080
     5  H    0.196223
     6  F   -0.286080
 Sum of Mulliken charges =  -0.00000
 Mulliken charges with hydrogens summed into heavy atoms:
               1
     1  C    0.286080
     2  C    0.286080
     4  F   -0.286080
     6  F   -0.286080
 Electronic spatial extent (au):  <R**2>=            287.8989
 Charge=              0.0000 electrons
 Dipole moment (field-independent basis, Debye):
    X=              0.0000    Y=             -0.0000    Z=              0.0000  Tot=              0.0000
 Quadrupole moment (field-independent basis, Debye-Ang):
   XX=            -25.6185   YY=            -17.9391   ZZ=            -21.9430
   XY=              1.5869   XZ=             -0.0001   YZ=             -0.0000
 Traceless Quadrupole moment (field-independent basis, Debye-Ang):
   XX=             -3.7850   YY=              3.8944   ZZ=             -0.1094
   XY=              1.5869   XZ=             -0.0001   YZ=             -0.0000
 Octapole moment (field-independent basis, Debye-Ang**2):
  XXX=              0.0000  YYY=             -0.0000  ZZZ=             -0.0003  XYY=              0.0000
  XXY=             -0.0000  XXZ=             -0.0000  XZZ=              0.0000  YZZ=             -0.0000
  YYZ=             -0.0001  XYZ=              0.0000
 Hexadecapole moment (field-independent basis, Debye-Ang**3):
 XXXX=           -225.5923 YYYY=            -36.1877 ZZZZ=            -17.8990 XXXY=             -2.8638
 XXXZ=             -0.0016 YYYX=             -0.7352 YYYZ=              0.0001 ZZZX=             -0.0013
 ZZZY=              0.0001 XXYY=            -41.4240 XXZZ=            -37.9595 YYZZ=            -10.7201
 XXYZ=              0.0000 YYXZ=             -0.0005 ZZXY=             -1.1909
 N-N= 1.106486336805D+02 E-N=-8.766697060206D+02  KE= 2.749454483011D+02
 No NMR shielding tensors so no spin-rotation constants.
 Leave Link  601 at Thu Jul 10 14:22:02 2025, MaxMem=  2684354560 cpu:               1.3 elap:               0.1
 (Enter /apps/gaussian/g16c01/g16/l9999.exe)
 Unable to Open any file for archive entry.
 1\1\GINC-GADI-CPU-CLX-0504\SP\RM052X\6-31G(d)\C2H2F2\YR9300\10-Jul-202
 5\0\\#P M052X/6-31G*\\H2F2_iso2_oct_vaccum_M05-2x\\0,1\C,0,0.525803,0.
 399709,0.000017\C,0,-0.525803,-0.399709,0.000013\H,0,0.503287,1.482057
 ,-0.000006\F,0,1.772691,-0.125792,0.000017\H,0,-0.503287,-1.482057,0.0
 00016\F,0,-1.772691,0.125792,-0.000038\\Version=ES64L-G16RevC.01\State
 =1-A\HF=-277.009173\RMSD=5.686e-09\Dipole=0.,0.,0.0000082\Quadrupole=-
 2.8140603,2.8954162,-0.0813559,1.1798007,-0.0000549,-0.0000192\PG=C01 
 [X(C2H2F2)]\\@
 The archive entry for this job was punched.


 NOTHING PUZZLES ME MORE THAN TIME AND SPACE; AND YET NOTHING TROUBLES ME LESS
                                                          -- CHARLES LAMB (1810)
 Job cpu time:       0 days  0 hours  0 minutes 26.2 seconds.
 Elapsed time:       0 days  0 hours  0 minutes  1.4 seconds.
 File lengths (MBytes):  RWF=      6 Int=      0 D2E=      0 Chk=      1 Scr=      1
 Normal termination of Gaussian 16 at Thu Jul 10 14:22:02 2025.
