 Entering Gaussian System, Link 0=g16
 Initial command:
 /apps/gaussian/g16c01/g16/l1.exe "/jobfs/145007331.gadi-pbs/Gau-2501403.inp" -scrdir="/jobfs/145007331.gadi-pbs/"
 Entering Link 1 = /apps/gaussian/g16c01/g16/l1.exe PID=   2501405.
  
 Copyright (c) 1988-2019, Gaussian, Inc.  All Rights Reserved.
  
 This is part of the Gaussian(R) 16 program.  It is based on
 the Gaussian(R) 09 system (copyright 2009, Gaussian, Inc.),
 the Gaussian(R) 03 system (copyright 2003, Gaussian, Inc.),
 the Gaussian(R) 98 system (copyright 1998, Gaussian, Inc.),
 the Gaussian(R) 94 system (copyright 1995, Gaussian, Inc.),
 the Gaussian 92(TM) system (copyright 1992, Gaussian, Inc.),
 the Gaussian 90(TM) system (copyright 1990, Gaussian, Inc.),
 the Gaussian 88(TM) system (copyright 1988, Gaussian, Inc.),
 the Gaussian 86(TM) system (copyright 1986, Carnegie Mellon
 University), and the Gaussian 82(TM) system (copyright 1983,
 Carnegie Mellon University). Gaussian is a federally registered
 trademark of Gaussian, Inc.
  
 This software contains proprietary and confidential information,
 including trade secrets, belonging to Gaussian, Inc.
  
 This software is provided under written license and may be
 used, copied, transmitted, or stored only in accord with that
 written license.
  
 The following legend is applicable only to US Government
 contracts under FAR:
  
                    RESTRICTED RIGHTS LEGEND
  
 Use, reproduction and disclosure by the US Government is
 subject to restrictions as set forth in subparagraphs (a)
 and (c) of the Commercial Computer Software - Restricted
 Rights clause in FAR 52.227-19.
  
 Gaussian, Inc.
 340 Quinnipiac St., Bldg. 40, Wallingford CT 06492
  
  
 ---------------------------------------------------------------
 Warning -- This program may not be used in any manner that
 competes with the business of Gaussian, Inc. or will provide
 assistance to any competitor of Gaussian, Inc.  The licensee
 of this program is prohibited from giving any competitor of
 Gaussian, Inc. access to this program.  By using this program,
 the user acknowledges that Gaussian, Inc. is engaged in the
 business of creating and licensing software in the field of
 computational chemistry and represents and warrants to the
 licensee that it is not a competitor of Gaussian, Inc. and that
 it will not use this program in any manner prohibited above.
 ---------------------------------------------------------------
  

 Cite this work as:
 Gaussian 16, Revision C.01,
 M. J. Frisch, G. W. Trucks, H. B. Schlegel, G. E. Scuseria, 
 M. A. Robb, J. R. Cheeseman, G. Scalmani, V. Barone, 
 G. A. Petersson, H. Nakatsuji, X. Li, M. Caricato, A. V. Marenich, 
 J. Bloino, B. G. Janesko, R. Gomperts, B. Mennucci, H. P. Hratchian, 
 J. V. Ortiz, A. F. Izmaylov, J. L. Sonnenberg, D. Williams-Young, 
 F. Ding, F. Lipparini, F. Egidi, J. Goings, B. Peng, A. Petrone, 
 T. Henderson, D. Ranasinghe, V. G. Zakrzewski, J. Gao, N. Rega, 
 G. Zheng, W. Liang, M. Hada, M. Ehara, K. Toyota, R. Fukuda, 
 J. Hasegawa, M. Ishida, T. Nakajima, Y. Honda, O. Kitao, H. Nakai, 
 T. Vreven, K. Throssell, J. A. Montgomery, Jr., J. E. Peralta, 
 F. Ogliaro, M. J. Bearpark, J. J. Heyd, E. N. Brothers, K. N. Kudin, 
 V. N. Staroverov, T. A. Keith, R. Kobayashi, J. Normand, 
 K. Raghavachari, A. P. Rendell, J. C. Burant, S. S. Iyengar, 
 J. Tomasi, M. Cossi, J. M. Millam, M. Klene, C. Adamo, R. Cammi, 
 J. W. Ochterski, R. L. Martin, K. Morokuma, O. Farkas, 
 J. B. Foresman, and D. J. Fox, Gaussian, Inc., Wallingford CT, 2019.
 
 ******************************************
 Gaussian 16:  ES64L-G16RevC.01  3-Jul-2019
                10-Jul-2025 
 ******************************************
 %chk=H2F2_iso2_oct_M05-2x.chk
 %mem=20GB
 %nprocshared=20
 Will use up to   20 processors via shared memory.
 -------------------------------------------
 #P M052X/6-31G* scrf(SMD,solvent=n-octanol)
 -------------------------------------------
 1/38=1,172=1/1;
 2/12=2,17=6,18=5,40=1/2;
 3/5=1,6=6,7=1,11=2,25=1,30=1,70=32201,72=25,74=-38/1,2,3;
 4//1;
 5/5=2,38=5,53=25/2;
 6/7=2,8=2,9=2,10=2,28=1/1;
 99/5=1,9=1/99;
 Leave Link    1 at Thu Jul 10 14:22:00 2025, MaxMem=  2684354560 cpu:               0.9 elap:               0.1
 (Enter /apps/gaussian/g16c01/g16/l101.exe)
 --------------------
 H2F2_iso2_oct_M05-2x
 --------------------
 Symbolic Z-matrix:
 Charge =  0 Multiplicity = 1
 C                     0.5258    0.39971   0.00002 
 C                    -0.5258   -0.39971   0.00001 
 H                     0.50329   1.48206  -0.00001 
 F                     1.77269  -0.12579   0.00002 
 H                    -0.50329  -1.48206   0.00002 
 F                    -1.77269   0.12579  -0.00004 
 
 ITRead=  0  0  0  0  0  0
 MicOpt= -1 -1 -1 -1 -1 -1
 NAtoms=      6 NQM=        6 NQMF=       0 NMMI=      0 NMMIF=      0
                NMic=       0 NMicF=      0.
                    Isotopes and Nuclear Properties:
 (Nuclear quadrupole moments (NQMom) in fm**2, nuclear magnetic moments (NMagM)
  in nuclear magnetons)

  Atom         1           2           3           4           5           6
 IAtWgt=          12          12           1          19           1          19
 AtmWgt=  12.0000000  12.0000000   1.0078250  18.9984033   1.0078250  18.9984033
 NucSpn=           0           0           1           1           1           1
 AtZEff=  -0.0000000  -0.0000000  -0.0000000  -0.0000000  -0.0000000  -0.0000000
 NQMom=    0.0000000   0.0000000   0.0000000   0.0000000   0.0000000   0.0000000
 NMagM=    0.0000000   0.0000000   2.7928460   2.6288670   2.7928460   2.6288670
 AtZNuc=   6.0000000   6.0000000   1.0000000   9.0000000   1.0000000   9.0000000
 Leave Link  101 at Thu Jul 10 14:22:00 2025, MaxMem=  2684354560 cpu:               1.6 elap:               0.2
 (Enter /apps/gaussian/g16c01/g16/l202.exe)
                          Input orientation:                          
 ---------------------------------------------------------------------
 Center     Atomic      Atomic             Coordinates (Angstroms)
 Number     Number       Type             X           Y           Z
 ---------------------------------------------------------------------
      1          6           0        0.525803    0.399709    0.000017
      2          6           0       -0.525803   -0.399709    0.000013
      3          1           0        0.503287    1.482057   -0.000006
      4          9           0        1.772691   -0.125792    0.000017
      5          1           0       -0.503287   -1.482057    0.000016
      6          9           0       -1.772691    0.125792   -0.000038
 ---------------------------------------------------------------------
                    Distance matrix (angstroms):
                    1          2          3          4          5
     1  C    0.000000
     2  C    1.320963   0.000000
     3  H    1.082582   2.144777   0.000000
     4  F    1.353101   2.314758   2.048552   0.000000
     5  H    2.144777   1.082582   3.130361   2.649440   0.000000
     6  F    2.314758   1.353101   2.649440   3.554297   2.048552
                    6
     6  F    0.000000
 Stoichiometry    C2H2F2
 Framework group  C1[X(C2H2F2)]
 Deg. of freedom    12
 Full point group                 C1      NOp   1
 Largest Abelian subgroup         C1      NOp   1
 Largest concise Abelian subgroup C1      NOp   1
                         Standard orientation:                         
 ---------------------------------------------------------------------
 Center     Atomic      Atomic             Coordinates (Angstroms)
 Number     Number       Type             X           Y           Z
 ---------------------------------------------------------------------
      1          6           0        0.525803    0.399709    0.000017
      2          6           0       -0.525803   -0.399709    0.000013
      3          1           0        0.503287    1.482057   -0.000006
      4          9           0        1.772691   -0.125792    0.000017
      5          1           0       -0.503287   -1.482057    0.000016
      6          9           0       -1.772691    0.125792   -0.000038
 ---------------------------------------------------------------------
 Rotational constants (GHZ):          57.2243959           3.9925743           3.7321784
 Leave Link  202 at Thu Jul 10 14:22:01 2025, MaxMem=  2684354560 cpu:               4.7 elap:               0.4
 (Enter /apps/gaussian/g16c01/g16/l301.exe)
 Standard basis: 6-31G(d) (6D, 7F)
 Ernie: Thresh=  0.10000D-02 Tol=  0.10000D-05 Strict=F.
 There are    64 symmetry adapted cartesian basis functions of A   symmetry.
 There are    64 symmetry adapted basis functions of A   symmetry.
    64 basis functions,   120 primitive gaussians,    64 cartesian basis functions
    16 alpha electrons       16 beta electrons
       nuclear repulsion energy       110.6486336805 Hartrees.
 IExCor= 3428 DFT=T Ex+Corr=M052X ExCW=0 ScaHFX=  0.560000
 ScaDFX=  0.440000  0.440000  1.000000  1.000000 ScalE2=  1.000000  1.000000
 IRadAn=      5 IRanWt=     -1 IRanGd=            0 ICorTp=0 IEmpDi=  4
 NAtoms=    6 NActive=    6 NUniq=    6 SFac= 1.00D+00 NAtFMM=   60 NAOKFM=F Big=F
 Integral buffers will be    131072 words long.
 Raffenetti 2 integral format.
 Two-electron integral symmetry is turned on.
 ------------------------------------------------------------------------------
 Polarizable Continuum Model (PCM)
 =================================
 Model                : PCM.
 Atomic radii         : SMD-Coulomb.
 Polarization charges : Total charges.
 Charge compensation  : None.
 Solution method      : On-the-fly selection.
 Cavity type          : VdW (van der Waals Surface) (Alpha=1.000).
 Cavity algorithm     : GePol (No added spheres)
                        Default sphere list used, NSphG=    6.
                        Lebedev-Laikov grids with approx.  5.0 points / Ang**2.
                        Smoothing algorithm: York/Karplus (Gamma=1.0000).
                        Polarization charges: spherical gaussians, with
                                              point-specific exponents (IZeta= 3).
                        Self-potential: point-specific (ISelfS= 7).
                        Self-field    : sphere-specific E.n sum rule (ISelfD= 2).
 Solvent              : n-Octanol, Eps=   9.862900 Eps(inf)=   2.043470
 ------------------------------------------------------------------------------
 Spheres list:
 ISph  on   Nord     Re0    Alpha      Xe            Ye            Ze
    1   C      1    1.8500  1.000      0.525803      0.399709      0.000017
    2   C      2    1.8500  1.000     -0.525803     -0.399709      0.000013
    3   H      3    1.2000  1.000      0.503287      1.482057     -0.000006
    4   F      4    1.7300  1.000      1.772691     -0.125792      0.000017
    5   H      5    1.2000  1.000     -0.503287     -1.482057      0.000016
    6   F      6    1.7300  1.000     -1.772691      0.125792     -0.000038
 ------------------------------------------------------------------------------
 GePol: Number of generator spheres                  =       6
 GePol: Total number of spheres                      =       6
 GePol: Number of exposed spheres                    =       6 (100.00%)
 GePol: Number of points                             =     620
 GePol: Average weight of points                     =       0.14
 GePol: Minimum weight of points                     =   0.96D-05
 GePol: Maximum weight of points                     =    0.21501
 GePol: Number of points with low weight             =      24
 GePol: Fraction of low-weight points (<1% of avg)   =       3.87%
 GePol: Cavity surface area                          =     86.239 Ang**2
 GePol: Cavity volume                                =     63.584 Ang**3
 ------------------------------------------------------------------------------
 Atomic radii for non-electrostatic terms: SMD-CDS.
 ------------------------------------------------------------------------------
 PCM non-electrostatic energy =         0.0031961712 Hartrees.
 Nuclear repulsion after PCM non-electrostatic terms =      110.6518298517 Hartrees.
 Leave Link  301 at Thu Jul 10 14:22:01 2025, MaxMem=  2684354560 cpu:               1.1 elap:               0.1
 (Enter /apps/gaussian/g16c01/g16/l302.exe)
 NPDir=0 NMtPBC=     1 NCelOv=     1 NCel=       1 NClECP=     1 NCelD=      1
         NCelK=      1 NCelE2=     1 NClLst=     1 CellRange=     0.0.
 One-electron integrals computed using PRISM.
 One-electron integral symmetry used in STVInt
 NBasis=    64 RedAO= T EigKep=  4.04D-03  NBF=    64
 NBsUse=    64 1.00D-06 EigRej= -1.00D+00 NBFU=    64
 Precomputing XC quadrature grid using
 IXCGrd= 4 IRadAn=           5 IRanWt=          -1 IRanGd=           0 AccXCQ= 0.00D+00.
 Generated NRdTot=       0 NPtTot=           0 NUsed=           0 NTot=          32
 NSgBfM=    64    64    64    64    64 MxSgAt=     6 MxSgA2=     6.
 Leave Link  302 at Thu Jul 10 14:22:01 2025, MaxMem=  2684354560 cpu:               3.0 elap:               0.2
 (Enter /apps/gaussian/g16c01/g16/l303.exe)
 DipDrv:  MaxL=1.
 Leave Link  303 at Thu Jul 10 14:22:01 2025, MaxMem=  2684354560 cpu:               1.4 elap:               0.1
 (Enter /apps/gaussian/g16c01/g16/l401.exe)
 ExpMin= 1.61D-01 ExpMax= 7.00D+03 ExpMxC= 1.05D+03 IAcc=3 IRadAn=         5 AccDes= 0.00D+00
 Harris functional with IExCor= 1009 and IRadAn=       5 diagonalized for initial guess.
 HarFok:  IExCor= 1009 AccDes= 0.00D+00 IRadAn=         5 IDoV= 1 UseB2=F ITyADJ=14
 ICtDFT=  3500011 ScaDFX=  1.000000  1.000000  1.000000  1.000000
 FoFCou: FMM=F IPFlag=           0 FMFlag=      100000 FMFlg1=           0
         NFxFlg=           0 DoJE=T BraDBF=F KetDBF=T FulRan=T
         wScrn=  0.000000 ICntrl=       500 IOpCl=  0 I1Cent=   200000004 NGrid=           0
         NMat0=    1 NMatS0=      1 NMatT0=    0 NMatD0=    1 NMtDS0=    0 NMtDT0=    0
 Petite list used in FoFCou.
 Harris En= -276.769954167626    
 JPrj=0 DoOrth=F DoCkMO=F.
 Leave Link  401 at Thu Jul 10 14:22:02 2025, MaxMem=  2684354560 cpu:              13.1 elap:               1.0
 (Enter /apps/gaussian/g16c01/g16/l502.exe)
 Keep R1 ints in memory in canonical form, NReq=19962716.
 FoFCou: FMM=F IPFlag=           0 FMFlag=           0 FMFlg1=           0
         NFxFlg=           0 DoJE=F BraDBF=F KetDBF=F FulRan=T
         wScrn=  0.000000 ICntrl=       600 IOpCl=  0 I1Cent=           0 NGrid=           0
         NMat0=    1 NMatS0=   2080 NMatT0=    0 NMatD0=    1 NMtDS0=    0 NMtDT0=    0
 Symmetry not used in FoFCou.
 Two-electron integral symmetry not used.
 Closed shell SCF:
 Using DIIS extrapolation, IDIIS=  1040.
 NGot=  2684354560 LenX=  2682179902 LenY=  2682175365
 Requested convergence on RMS density matrix=1.00D-08 within 128 cycles.
 Requested convergence on MAX density matrix=1.00D-06.
 Requested convergence on             energy=1.00D-06.
 No special actions if energy rises.

 Cycle   1  Pass 1  IDiag  1:
 Inv3:  Mode=1 IEnd=     1153200.
 Iteration    1 A*A^-1 deviation from unit magnitude is 2.22D-15 for      4.
 Iteration    1 A*A^-1 deviation from orthogonality  is 1.75D-15 for    581     81.
 Iteration    1 A^-1*A deviation from unit magnitude is 2.00D-15 for      4.
 Iteration    1 A^-1*A deviation from orthogonality  is 1.49D-15 for    589    353.
 E= -276.977739745044    
 DIIS: error= 2.20D-02 at cycle   1 NSaved=   1.
 NSaved= 1 IEnMin= 1 EnMin= -276.977739745044     IErMin= 1 ErrMin= 2.20D-02
 ErrMax= 2.20D-02  0.00D+00 EMaxC= 1.00D-01 BMatC= 4.65D-02 BMatP= 4.65D-02
 IDIUse=3 WtCom= 7.80D-01 WtEn= 2.20D-01
 Coeff-Com:  0.100D+01
 Coeff-En:   0.100D+01
 Coeff:      0.100D+01
 Gap=     0.398 Goal=   None    Shift=    0.000
 GapD=    0.398 DampG=1.000 DampE=0.500 DampFc=0.5000 IDamp=-1.
 Damping current iteration by 5.00D-01
 RMSDP=3.72D-03 MaxDP=4.54D-02              OVMax= 6.43D-02

 Cycle   2  Pass 1  IDiag  1:
 E= -276.995658852881     Delta-E=       -0.017919107837 Rises=F Damp=T
 DIIS: error= 1.03D-02 at cycle   2 NSaved=   2.
 NSaved= 2 IEnMin= 2 EnMin= -276.995658852881     IErMin= 2 ErrMin= 1.03D-02
 ErrMax= 1.03D-02  0.00D+00 EMaxC= 1.00D-01 BMatC= 7.03D-03 BMatP= 4.65D-02
 IDIUse=3 WtCom= 8.97D-01 WtEn= 1.03D-01
 Coeff-Com: -0.467D+00 0.147D+01
 Coeff-En:   0.000D+00 0.100D+01
 Coeff:     -0.419D+00 0.142D+01
 Gap=     0.393 Goal=   None    Shift=    0.000
 RMSDP=1.14D-03 MaxDP=1.65D-02 DE=-1.79D-02 OVMax= 2.04D-02

 Cycle   3  Pass 1  IDiag  1:
 E= -277.010822291148     Delta-E=       -0.015163438267 Rises=F Damp=F
 DIIS: error= 1.40D-03 at cycle   3 NSaved=   3.
 NSaved= 3 IEnMin= 3 EnMin= -277.010822291148     IErMin= 3 ErrMin= 1.40D-03
 ErrMax= 1.40D-03  0.00D+00 EMaxC= 1.00D-01 BMatC= 1.41D-04 BMatP= 7.03D-03
 IDIUse=3 WtCom= 9.86D-01 WtEn= 1.40D-02
 Coeff-Com: -0.103D+00 0.220D+00 0.883D+00
 Coeff-En:   0.000D+00 0.000D+00 0.100D+01
 Coeff:     -0.102D+00 0.217D+00 0.885D+00
 Gap=     0.392 Goal=   None    Shift=    0.000
 RMSDP=1.52D-04 MaxDP=1.77D-03 DE=-1.52D-02 OVMax= 2.47D-03

 Cycle   4  Pass 1  IDiag  1:
 E= -277.010938038303     Delta-E=       -0.000115747155 Rises=F Damp=F
 DIIS: error= 3.04D-04 at cycle   4 NSaved=   4.
 NSaved= 4 IEnMin= 4 EnMin= -277.010938038303     IErMin= 4 ErrMin= 3.04D-04
 ErrMax= 3.04D-04  0.00D+00 EMaxC= 1.00D-01 BMatC= 4.18D-06 BMatP= 1.41D-04
 IDIUse=3 WtCom= 9.97D-01 WtEn= 3.04D-03
 Coeff-Com: -0.113D-01 0.198D-01 0.166D+00 0.825D+00
 Coeff-En:   0.000D+00 0.000D+00 0.000D+00 0.100D+01
 Coeff:     -0.113D-01 0.197D-01 0.166D+00 0.826D+00
 Gap=     0.392 Goal=   None    Shift=    0.000
 RMSDP=3.37D-05 MaxDP=4.24D-04 DE=-1.16D-04 OVMax= 8.89D-04

 Cycle   5  Pass 1  IDiag  1:
 E= -277.010940642580     Delta-E=       -0.000002604277 Rises=F Damp=F
 DIIS: error= 1.63D-04 at cycle   5 NSaved=   5.
 NSaved= 5 IEnMin= 5 EnMin= -277.010940642580     IErMin= 5 ErrMin= 1.63D-04
 ErrMax= 1.63D-04  0.00D+00 EMaxC= 1.00D-01 BMatC= 1.84D-06 BMatP= 4.18D-06
 IDIUse=3 WtCom= 9.98D-01 WtEn= 1.63D-03
 Coeff-Com:  0.124D-02-0.582D-02 0.174D-01 0.416D+00 0.571D+00
 Coeff-En:   0.000D+00 0.000D+00 0.000D+00 0.630D-01 0.937D+00
 Coeff:      0.124D-02-0.581D-02 0.173D-01 0.416D+00 0.571D+00
 Gap=     0.392 Goal=   None    Shift=    0.000
 RMSDP=1.54D-05 MaxDP=1.71D-04 DE=-2.60D-06 OVMax= 1.90D-04

 Cycle   6  Pass 1  IDiag  1:
 E= -277.010941826459     Delta-E=       -0.000001183880 Rises=F Damp=F
 DIIS: error= 2.51D-05 at cycle   6 NSaved=   6.
 NSaved= 6 IEnMin= 6 EnMin= -277.010941826459     IErMin= 6 ErrMin= 2.51D-05
 ErrMax= 2.51D-05  0.00D+00 EMaxC= 1.00D-01 BMatC= 1.55D-08 BMatP= 1.84D-06
 IDIUse=1 WtCom= 1.00D+00 WtEn= 0.00D+00
 Coeff-Com:  0.129D-02-0.244D-02-0.182D-01-0.487D-01 0.102D-01 0.106D+01
 Coeff:      0.129D-02-0.244D-02-0.182D-01-0.487D-01 0.102D-01 0.106D+01
 Gap=     0.392 Goal=   None    Shift=    0.000
 RMSDP=4.99D-06 MaxDP=6.38D-05 DE=-1.18D-06 OVMax= 1.10D-04

 Cycle   7  Pass 1  IDiag  1:
 E= -277.010941859757     Delta-E=       -0.000000033297 Rises=F Damp=F
 DIIS: error= 1.52D-06 at cycle   7 NSaved=   7.
 NSaved= 7 IEnMin= 7 EnMin= -277.010941859757     IErMin= 7 ErrMin= 1.52D-06
 ErrMax= 1.52D-06  0.00D+00 EMaxC= 1.00D-01 BMatC= 1.57D-10 BMatP= 1.55D-08
 IDIUse=1 WtCom= 1.00D+00 WtEn= 0.00D+00
 Coeff-Com: -0.931D-04 0.206D-03 0.386D-03-0.193D-02-0.729D-02-0.364D-01
 Coeff-Com:  0.105D+01
 Coeff:     -0.931D-04 0.206D-03 0.386D-03-0.193D-02-0.729D-02-0.364D-01
 Coeff:      0.105D+01
 Gap=     0.392 Goal=   None    Shift=    0.000
 RMSDP=6.14D-07 MaxDP=9.53D-06 DE=-3.33D-08 OVMax= 6.93D-06

 Cycle   8  Pass 1  IDiag  1:
 E= -277.010941860061     Delta-E=       -0.000000000304 Rises=F Damp=F
 DIIS: error= 3.88D-07 at cycle   8 NSaved=   8.
 NSaved= 8 IEnMin= 8 EnMin= -277.010941860061     IErMin= 8 ErrMin= 3.88D-07
 ErrMax= 3.88D-07  0.00D+00 EMaxC= 1.00D-01 BMatC= 6.61D-12 BMatP= 1.57D-10
 IDIUse=1 WtCom= 1.00D+00 WtEn= 0.00D+00
 Coeff-Com: -0.368D-04 0.711D-04 0.496D-03 0.137D-02 0.533D-03-0.324D-01
 Coeff-Com: -0.327D-02 0.103D+01
 Coeff:     -0.368D-04 0.711D-04 0.496D-03 0.137D-02 0.533D-03-0.324D-01
 Coeff:     -0.327D-02 0.103D+01
 Gap=     0.392 Goal=   None    Shift=    0.000
 RMSDP=9.50D-08 MaxDP=1.47D-06 DE=-3.04D-10 OVMax= 1.43D-06

 Cycle   9  Pass 1  IDiag  1:
 E= -277.010941860071     Delta-E=       -0.000000000011 Rises=F Damp=F
 DIIS: error= 3.02D-08 at cycle   9 NSaved=   9.
 NSaved= 9 IEnMin= 9 EnMin= -277.010941860071     IErMin= 9 ErrMin= 3.02D-08
 ErrMax= 3.02D-08  0.00D+00 EMaxC= 1.00D-01 BMatC= 8.96D-14 BMatP= 6.61D-12
 IDIUse=1 WtCom= 1.00D+00 WtEn= 0.00D+00
 Coeff-Com:  0.422D-05-0.885D-05-0.289D-04-0.152D-04 0.197D-03 0.206D-02
 Coeff-Com: -0.193D-01-0.485D-01 0.107D+01
 Coeff:      0.422D-05-0.885D-05-0.289D-04-0.152D-04 0.197D-03 0.206D-02
 Coeff:     -0.193D-01-0.485D-01 0.107D+01
 Gap=     0.392 Goal=   None    Shift=    0.000
 RMSDP=8.99D-09 MaxDP=7.61D-08 DE=-1.05D-11 OVMax= 1.97D-07

 Error on total polarization charges =  0.00947
 SCF Done:  E(RM052X) =  -277.010941860     A.U. after    9 cycles
            NFock=  9  Conv=0.90D-08     -V/T= 2.0075
 KE= 2.749608102512D+02 PE=-8.767646602418D+02 EE= 2.141410782788D+02
 SMD-CDS (non-electrostatic) energy       (kcal/mol) =       2.01
 (included in total energy above)
 Leave Link  502 at Thu Jul 10 14:22:04 2025, MaxMem=  2684354560 cpu:              30.0 elap:               1.6
 (Enter /apps/gaussian/g16c01/g16/l601.exe)
 Copying SCF densities to generalized density rwf, IOpCl= 0 IROHF=0.

 **********************************************************************

            Population analysis using the SCF Density.

 **********************************************************************

 Orbital symmetries:
       Occupied  (A) (A) (A) (A) (A) (A) (A) (A) (A) (A) (A) (A)
                 (A) (A) (A) (A)
       Virtual   (A) (A) (A) (A) (A) (A) (A) (A) (A) (A) (A) (A)
                 (A) (A) (A) (A) (A) (A) (A) (A) (A) (A) (A) (A)
                 (A) (A) (A) (A) (A) (A) (A) (A) (A) (A) (A) (A)
                 (A) (A) (A) (A) (A) (A) (A) (A) (A) (A) (A) (A)
 The electronic state is 1-A.
 Alpha  occ. eigenvalues --  -25.31415 -25.31415 -10.65870 -10.65744  -1.35687
 Alpha  occ. eigenvalues --   -1.35190  -0.88032  -0.71354  -0.63383  -0.62086
 Alpha  occ. eigenvalues --   -0.56871  -0.55890  -0.54355  -0.49561  -0.44691
 Alpha  occ. eigenvalues --   -0.31476
 Alpha virt. eigenvalues --    0.07749   0.14025   0.21080   0.22177   0.32936
 Alpha virt. eigenvalues --    0.42218   0.57532   0.58006   0.63669   0.66338
 Alpha virt. eigenvalues --    0.67789   0.69637   0.93678   0.94249   1.05182
 Alpha virt. eigenvalues --    1.07226   1.19724   1.28222   1.30402   1.31829
 Alpha virt. eigenvalues --    1.44014   1.44809   1.47148   1.53135   1.66143
 Alpha virt. eigenvalues --    1.67731   1.84869   1.86391   1.87367   1.89451
 Alpha virt. eigenvalues --    1.95369   1.99823   2.03677   2.07652   2.08213
 Alpha virt. eigenvalues --    2.25162   2.36204   2.42152   2.57189   2.59238
 Alpha virt. eigenvalues --    2.85906   2.90590   3.11792   3.22120   4.13201
 Alpha virt. eigenvalues --    4.27380   4.29588   4.54370
          Condensed to atoms (all electrons):
               1          2          3          4          5          6
     1  C    4.849571   0.535869   0.373604   0.261028  -0.057817  -0.032215
     2  C    0.535869   4.849571  -0.057817  -0.032215   0.373604   0.261028
     3  H    0.373604  -0.057817   0.481258  -0.030383   0.003203   0.000584
     4  F    0.261028  -0.032215  -0.030383   9.100212   0.000584   0.000286
     5  H   -0.057817   0.373604   0.003203   0.000584   0.481258  -0.030383
     6  F   -0.032215   0.261028   0.000584   0.000286  -0.030383   9.100212
 Mulliken charges:
               1
     1  C    0.069961
     2  C    0.069961
     3  H    0.229551
     4  F   -0.299512
     5  H    0.229551
     6  F   -0.299512
 Sum of Mulliken charges =  -0.00000
 Mulliken charges with hydrogens summed into heavy atoms:
               1
     1  C    0.299512
     2  C    0.299512
     4  F   -0.299512
     6  F   -0.299512
 Electronic spatial extent (au):  <R**2>=            287.9116
 Charge=             -0.0000 electrons
 Dipole moment (field-independent basis, Debye):
    X=              0.0000    Y=             -0.0000    Z=              0.0000  Tot=              0.0000
 Quadrupole moment (field-independent basis, Debye-Ang):
   XX=            -26.0740   YY=            -17.4915   ZZ=            -21.9522
   XY=              1.7633   XZ=             -0.0001   YZ=             -0.0000
 Traceless Quadrupole moment (field-independent basis, Debye-Ang):
   XX=             -4.2348   YY=              4.3478   ZZ=             -0.1130
   XY=              1.7633   XZ=             -0.0001   YZ=             -0.0000
 Octapole moment (field-independent basis, Debye-Ang**2):
  XXX=              0.0000  YYY=             -0.0000  ZZZ=             -0.0003  XYY=              0.0000
  XXY=             -0.0000  XXZ=             -0.0000  XZZ=              0.0000  YZZ=             -0.0000
  YYZ=             -0.0001  XYZ=              0.0000
 Hexadecapole moment (field-independent basis, Debye-Ang**3):
 XXXX=           -228.3489 YYYY=            -33.9914 ZZZZ=            -17.9205 XXXY=             -2.4088
 XXXZ=             -0.0016 YYYX=             -0.2061 YYYZ=              0.0000 ZZZX=             -0.0014
 ZZZY=              0.0001 XXYY=            -41.3071 XXZZ=            -38.0673 YYZZ=            -10.5832
 XXYZ=              0.0000 YYXZ=             -0.0005 ZZXY=             -1.1420
 N-N= 1.106518298517D+02 E-N=-8.767646615668D+02  KE= 2.749608102512D+02
 No NMR shielding tensors so no spin-rotation constants.
 Leave Link  601 at Thu Jul 10 14:22:04 2025, MaxMem=  2684354560 cpu:               2.7 elap:               0.1
 (Enter /apps/gaussian/g16c01/g16/l9999.exe)
 Unable to Open any file for archive entry.
 1\1\GINC-GADI-CPU-CLX-0118\SP\RM052X\6-31G(d)\C2H2F2\YR9300\10-Jul-202
 5\0\\#P M052X/6-31G* scrf(SMD,solvent=n-octanol)\\H2F2_iso2_oct_M05-2x
 \\0,1\C,0,0.525803,0.399709,0.000017\C,0,-0.525803,-0.399709,0.000013\
 H,0,0.503287,1.482057,-0.000006\F,0,1.772691,-0.125792,0.000017\H,0,-0
 .503287,-1.482057,0.000016\F,0,-1.772691,0.125792,-0.000038\\Version=E
 S64L-G16RevC.01\State=1-A\HF=-277.0109419\RMSD=8.995e-09\Dipole=0.,0.,
 0.0000092\Quadrupole=-3.1484541,3.2324595,-0.0840054,1.3109788,-0.0000
 614,-0.0000214\PG=C01 [X(C2H2F2)]\\@
 The archive entry for this job was punched.


 "THE ACADEMIC HIERARCHY"


 THE PRESIDENT:
   LEAPS TALL BUILDINGS IN A SINGLE BOUND,
     IS MORE POWERFUL THAN A LOCOMOTIVE,
       IS FASTER THAN A SPEEDING BULLET,
         WALKS ON WATER,
           GIVES POLICY TO GOD.

 THE VICE PRESIDENT FOR ACADEMIC AFFAIRS:
   LEAPS SHORT BUILDINGS IN A SINGLE BOUND,
     IS MORE POWERFUL THAN A SWITCH ENGINE,
       IS JUST AS FAST AS A SPEEDING BULLET,
         WALKS ON WATER IF SEA IS CALM,
           TALKS WITH GOD.

 PROFESSOR:
   LEAPS SHORT BUILDINGS WITH A RUNNING START AND FAVORABLE WINDS,
     IS ALMOST AS POWERFUL AS A SWITCH ENGINE,
       CAN FIRE A SPEEDING BULLET,
         WALKS ON WATER IN AN INDOOR SWIMMING POOL,
          TALKS WITH GOD IF SPECIAL REQUEST IS APPROVED.

 ASSOCIATE PROFESSOR:
   BARELY CLEARS A QUONSET HUT,
     LOSES TUG OF WAR WITH LOCOMOTIVE,
       MISFIRES FREQUENTLY,
         SWIMS WELL,
           IS OCCASIONALLY ADDRESSED BY GOD.

 ASSISTANT PROFESSOR:
   MAKES HIGH MARKS ON WALLS WHEN TRYING TO LEAP TALL BUILDINGS,
     IS RUN OVER BY LOCOMOTIVES,
       CAN SOMETIMES HANDLE A GUN WITHOUT INFLICTING SELF INJURY,
         DOG PADDLES,
           TALKS TO ANIMALS.

 GRADUATE STUDENT:
   RUNS INTO BUILDINGS,
     RECOGNIZES LOCOMOTIVES TWO OUT OF THREE TIMES,
       IS NOT ISSUED AMMUNITION,
         CAN STAY AFLOAT WITH A LIFE JACKET,
           TALKS TO WALLS.

 UNDERGRADUATE AND WORK STUDY STUDENT:
   FALLS OVER DOORSTEP WHEN TRYING TO ENTER BUILDINGS,
     SAYS, "LOOK AT THE CHOO-CHOO,"
       WETS HIMSELF WITH A WATER PISTOL,
        PLAYS IN MUD PUDDLES,
          MUMBLES TO HIMSELF.

 DEPARTMENT SECRETARY:
   LIFTS TALL BUILDINGS AND WALKS UNDER THEM,
     KICKS LOCOMOTIVES OFF THE TRACKS,
       CATCHES SPEEDING BULLETS IN HER TEETH AND EATS THEM,
         FREEZES WATER WITH A SINGLE GLANCE,
           IS GOD.
 Job cpu time:       0 days  0 hours  0 minutes 59.3 seconds.
 Elapsed time:       0 days  0 hours  0 minutes  3.8 seconds.
 File lengths (MBytes):  RWF=     13 Int=      0 D2E=      0 Chk=      2 Scr=      1
 Normal termination of Gaussian 16 at Thu Jul 10 14:22:04 2025.
