 Entering Gaussian System, Link 0=g09
 Initial command:
 /apps/z_install_tree/linux-rocky8-ivybridge/gcc-12.2.0/gaussian-09-D.01-wczn3gur5lpur3omlkzwa2l5ecyxp5ef/g09/l1.exe "/srv/scratch/z5112331/Gaussian/Cl4_reference/Int1p/Gau-1691641.inp" -scrdir="/srv/scratch/z5112331/Gaussian/Cl4_reference/Int1p/"
 Entering Link 1 = /apps/z_install_tree/linux-rocky8-ivybridge/gcc-12.2.0/gaussian-09-D.01-wczn3gur5lpur3omlkzwa2l5ecyxp5ef/g09/l1.exe PID=   1691642.
  
 Copyright (c) 1988,1990,1992,1993,1995,1998,2003,2009,2013,
            Gaussian, Inc.  All Rights Reserved.
  
 This is part of the Gaussian(R) 09 program.  It is based on
 the Gaussian(R) 03 system (copyright 2003, Gaussian, Inc.),
 the Gaussian(R) 98 system (copyright 1998, Gaussian, Inc.),
 the Gaussian(R) 94 system (copyright 1995, Gaussian, Inc.),
 the Gaussian 92(TM) system (copyright 1992, Gaussian, Inc.),
 the Gaussian 90(TM) system (copyright 1990, Gaussian, Inc.),
 the Gaussian 88(TM) system (copyright 1988, Gaussian, Inc.),
 the Gaussian 86(TM) system (copyright 1986, Carnegie Mellon
 University), and the Gaussian 82(TM) system (copyright 1983,
 Carnegie Mellon University). Gaussian is a federally registered
 trademark of Gaussian, Inc.
  
 This software contains proprietary and confidential information,
 including trade secrets, belonging to Gaussian, Inc.
  
 This software is provided under written license and may be
 used, copied, transmitted, or stored only in accord with that
 written license.
  
 The following legend is applicable only to US Government
 contracts under FAR:
  
                    RESTRICTED RIGHTS LEGEND
  
 Use, reproduction and disclosure by the US Government is
 subject to restrictions as set forth in subparagraphs (a)
 and (c) of the Commercial Computer Software - Restricted
 Rights clause in FAR 52.227-19.
  
 Gaussian, Inc.
 340 Quinnipiac St., Bldg. 40, Wallingford CT 06492
  
  
 ---------------------------------------------------------------
 Warning -- This program may not be used in any manner that
 competes with the business of Gaussian, Inc. or will provide
 assistance to any competitor of Gaussian, Inc.  The licensee
 of this program is prohibited from giving any competitor of
 Gaussian, Inc. access to this program.  By using this program,
 the user acknowledges that Gaussian, Inc. is engaged in the
 business of creating and licensing software in the field of
 computational chemistry and represents and warrants to the
 licensee that it is not a competitor of Gaussian, Inc. and that
 it will not use this program in any manner prohibited above.
 ---------------------------------------------------------------
  

 Cite this work as:
 Gaussian 09, Revision D.01,
 M. J. Frisch, G. W. Trucks, H. B. Schlegel, G. E. Scuseria, 
 M. A. Robb, J. R. Cheeseman, G. Scalmani, V. Barone, B. Mennucci, 
 G. A. Petersson, H. Nakatsuji, M. Caricato, X. Li, H. P. Hratchian, 
 A. F. Izmaylov, J. Bloino, G. Zheng, J. L. Sonnenberg, M. Hada, 
 M. Ehara, K. Toyota, R. Fukuda, J. Hasegawa, M. Ishida, T. Nakajima, 
 Y. Honda, O. Kitao, H. Nakai, T. Vreven, J. A. Montgomery, Jr., 
 J. E. Peralta, F. Ogliaro, M. Bearpark, J. J. Heyd, E. Brothers, 
 K. N. Kudin, V. N. Staroverov, T. Keith, R. Kobayashi, J. Normand, 
 K. Raghavachari, A. Rendell, J. C. Burant, S. S. Iyengar, J. Tomasi, 
 M. Cossi, N. Rega, J. M. Millam, M. Klene, J. E. Knox, J. B. Cross, 
 V. Bakken, C. Adamo, J. Jaramillo, R. Gomperts, R. E. Stratmann, 
 O. Yazyev, A. J. Austin, R. Cammi, C. Pomelli, J. W. Ochterski, 
 R. L. Martin, K. Morokuma, V. G. Zakrzewski, G. A. Voth, 
 P. Salvador, J. J. Dannenberg, S. Dapprich, A. D. Daniels, 
 O. Farkas, J. B. Foresman, J. V. Ortiz, J. Cioslowski, 
 and D. J. Fox, Gaussian, Inc., Wallingford CT, 2013.
 
 ******************************************
 Gaussian 09:  ES64L-G09RevD.01 24-Apr-2013
                28-Aug-2024 
 ******************************************
 %chk=Int1p_Cl4_freq_lsmd.chk
 %mem=200GB
 %nprocshared=20
 Will use up to   20 processors via shared memory.
 ----------------------------------------------------------------------
 #p b3lyp/gen nosymm scrf=(smd,read) guess=read em=gd3 int=ultrafine ps
 eudo=read scf=xqc scfcyc=96
 ----------------------------------------------------------------------
 1/38=1,40=2/1;
 2/12=2,15=1,17=6,18=5,40=1/2;
 3/5=7,11=2,16=1,17=8,25=1,30=1,70=32203,72=1,74=-5,75=-5,116=-2,124=31/1,2,3;
 4/5=1/1;
 5/5=2,7=96,8=3,13=1,38=6/2,8;
 6/7=2,8=2,9=2,10=2,28=1/1;
 99/5=1,9=1/99;
 Leave Link    1 at Wed Aug 28 08:52:49 2024, MaxMem= 26843545600 cpu:         2.9
 (Enter /apps/z_install_tree/linux-rocky8-ivybridge/gcc-12.2.0/gaussian-09-D.01-wczn3gur5lpur3omlkzwa2l5ecyxp5ef/g09/l101.exe)
 ------------------
 Int1p_Cl4_freq_smd
 ------------------
 Symbolic Z-matrix:
 Charge =  1 Multiplicity = 1
 C                     7.6695   -4.06026   4.14529 
 C                     6.68379  -3.02241   4.72581 
 C                     5.86848  -2.22823   3.72514 
 C                     6.13036  -0.87213   3.48596 
 C                     4.78449  -2.82026   3.05709 
 C                     5.32852  -0.12077   2.62212 
 C                     3.97792  -2.07702   2.19428 
 C                     4.24578  -0.72231   1.97871 
 C                    -3.6191    7.10359   1.27446 
 C                    -2.13805   6.79414   0.9981 
 O                    -1.92108   6.53436  -0.41285 
 C                    -1.65005   5.55683   1.73826 
 C                    -6.67579   2.96761   5.37294 
 C                    -5.23717   2.58413   5.76763 
 C                    -4.49743   1.9706    4.60509 
 C                    -4.75896   0.63563   4.26028 
 C                    -3.60902   2.69531   3.80718 
 C                    -4.14145   0.02842   3.17473 
 C                    -2.96727   2.09961   2.71924 
 C                    -3.2239    0.76229   2.41973 
 O                    -2.55982   0.09321   1.41683 
 C                    -3.80026  -5.49927   4.14978 
 C                    -2.65776  -4.48207   4.04842 
 C                    -2.92801  -3.35687   3.05316 
 O                    -3.95331  -3.33234   2.35789 
 N                    -1.95804  -2.42461   2.93414 
 C                    -7.76607   1.05986  -2.08137 
 C                    -8.09142   2.01655  -0.91164 
 C                    -7.2555    3.31157  -0.83593 
 C                    -6.04049   3.23396   0.09936 
 N                    -4.99371   2.32497  -0.36329 
 C                    -3.74944   2.64952  -0.71623 
 N                    -3.30041   3.90372  -0.75646 
 N                    -2.87808   1.64579  -1.0003 
 C                     9.94138   5.85858   0.32319 
 C                     8.61003   5.39441   0.94035 
 C                     7.75986   4.48792   0.09321 
 C                     8.04933   3.94819  -1.13415 
 C                     6.45525   3.98164   0.45588 
 N                     7.00282   3.1414   -1.56144 
 C                     6.01224   3.13797  -0.60178 
 C                     5.62357   4.15354   1.57694 
 C                     4.78034   2.47499  -0.56432 
 C                     4.39586   3.49884   1.62017 
 C                     3.98043   2.66723   0.55855 
 Co                    1.17207  -1.78935  -1.96529 
 C                    -1.36201  -2.98281  -2.22054 
 C                    -2.85433  -2.49458  -2.197 
 C                    -2.79417  -1.2846   -3.19365 
 C                    -1.3536   -0.81172  -3.03271 
 C                    -0.86619   0.47761  -3.44288 
 C                     0.47744   0.79202  -3.32733 
 C                     1.19573   2.1143   -3.73435 
 C                     2.5944    1.53759  -4.09745 
 C                     2.67307   0.36186  -3.16062 
 C                     3.87354  -0.21274  -2.79107 
 C                     4.03825  -1.39465  -2.0803 
 C                     5.4164   -1.97428  -1.82422 
 C                     5.0679   -3.31104  -1.09244 
 C                     3.54209  -3.29206  -1.00181 
 C                     2.80504  -4.26807  -0.35745 
 C                     1.37117  -4.28639  -0.42819 
 C                     0.41916  -5.31145   0.22868 
 C                    -0.89828  -5.02574  -0.55853 
 C                    -0.75056  -3.54613  -0.91929 
 C                    -1.04057  -3.93808  -3.3892 
 N                    -0.60438  -1.71908  -2.43966 
 N                     1.44143  -0.10002  -2.8483 
 N                     3.0232   -2.16699  -1.6389 
 N                     0.70348  -3.34356  -1.05458 
 C                    -3.88047  -3.55025  -2.58402 
 C                    -3.18117  -1.99529  -0.75688 
 C                    -4.54647  -1.38224  -0.55097 
 O                    -4.91357  -0.36001  -1.18262 
 N                    -5.35557  -1.97994   0.33154 
 C                    -3.20549  -1.56766  -4.65377 
 C                    -1.8657    1.43227  -4.07924 
 C                     0.62949   2.95247  -4.89059 
 C                     1.45288   3.0277   -2.48488 
 C                     0.29989   3.85809  -1.96485 
 O                    -0.84899   3.39468  -1.83574 
 N                     0.56488   5.12445  -1.59447 
 C                     2.73463   1.04147  -5.54992 
 C                     6.27843  -1.0585   -0.93383 
 C                     6.12268  -2.14849  -3.18035 
 C                     5.62012  -4.57708  -1.77331 
 C                     3.51699  -5.31855   0.47529 
 C                     0.27746  -4.97397   1.72861 
 C                     0.75825  -6.79965   0.04987 
 C                    -2.18237  -5.43656   0.15984 
 Cl                    0.53771   2.39995   3.79755 
 C                     0.52027   1.47671   2.33419 
 C                     0.74469   0.1507    2.27058 
 Cl                    0.16196   2.39276   0.89702 
 Cl                    0.79324  -0.71732   0.74289 
 H                     7.24175  -2.32776   5.36436 
 H                     5.98837  -3.55069   5.3913 
 H                     6.9632   -0.39482   3.99705 
 H                     4.5582   -3.86948   3.23567 
 H                     5.54135   0.93057   2.44976 
 H                     3.13886  -2.54566   1.69184 
 H                     3.62518  -0.14439   1.30204 
 H                     8.47931  -3.58237   3.58649 
 H                    -1.52254   7.65435   1.29785 
 H                    -0.62586   5.30738   1.44968 
 H                    -2.28763   4.69974   1.51098 
 H                    -1.66938   5.72811   2.81813 
 H                    -2.16086   7.32804  -0.91033 
 H                    -4.25162   6.47211   0.63983 
 H                    -4.701     3.45899   6.15127 
 H                    -5.2698    1.85791   6.58808 
 H                    -3.39379   3.73393   4.04633 
 H                    -5.46209   0.06174   4.85919 
 H                    -2.24916   2.65619   2.13045 
 H                    -4.34714  -1.00266   2.91191 
 H                    -2.20185   0.72593   0.76991 
 H                    -7.07887   2.24478   4.65545 
 H                    -2.41877  -4.03982   5.02348 
 H                    -1.73589  -4.9706    3.71331 
 H                    -2.06488  -1.64671   2.29009 
 H                    -1.15024  -2.42381   3.53755 
 H                    -4.31556  -5.57548   3.18939 
 H                    -9.15253   2.266    -0.99706 
 H                    -7.99191   1.46797   0.03632 
 H                    -7.88668   4.12138  -0.4509 
 H                    -6.92689   3.62094  -1.83574 
 H                    -5.61179   4.22917   0.24339 
 H                    -6.35278   2.89688   1.09515 
 H                    -5.21392   1.32887  -0.42112 
 H                    -2.0147    1.90544  -1.47537 
 H                    -3.32702   0.77489  -1.27743 
 H                    -3.8798    4.69551  -0.54496 
 H                    -2.34619   4.06962  -1.08965 
 H                    -6.71304   0.77465  -2.09044 
 H                     8.01927   6.27825   1.21997 
 H                     8.82186   4.88085   1.88927 
 H                     8.92773   4.07364  -1.75063 
 H                     5.94013   4.78774   2.40039 
 H                     3.74919   3.6188    2.48489 
 H                     4.46426   1.81124  -1.36135 
 H                     3.02611   2.15338   0.62298 
 H                     9.78325   6.50884  -0.54264 
 H                    -3.49041  -0.52078  -2.84716 
 H                     3.38629   2.27001  -3.90175 
 H                     4.77214   0.28294  -3.14133 
 H                     5.4756   -3.26406  -0.07505 
 H                    -0.82244  -5.60839  -1.48259 
 H                    -1.06558  -2.92788  -0.07422 
 H                    -1.23484  -3.46428  -4.34985 
 H                    -1.62065  -4.86205  -3.33541 
 H                     0.02288  -4.18472  -3.35707 
 H                    -4.88826  -3.11958  -2.60226 
 H                    -3.69703  -3.97173  -3.57256 
 H                    -3.89588  -4.37362  -1.86792 
 H                    -2.44951  -1.24034  -0.46727 
 H                    -3.07977  -2.81906  -0.05211 
 H                    -6.24588  -1.53717   0.521 
 H                    -3.09247  -0.66421  -5.25665 
 H                    -2.60818  -2.34851  -5.12561 
 H                    -1.71592   2.45759  -3.75218 
 H                    -1.80683   1.41643  -5.1731 
 H                    -2.89146   1.17045  -3.8177 
 H                     1.40001   3.6518   -5.23401 
 H                    -0.23781   3.54446  -4.59757 
 H                     0.3419    2.32998  -5.73894 
 H                     2.28685   3.69707  -2.72081 
 H                     1.79012   2.40588  -1.64725 
 H                    -0.1757    5.67627  -1.16179 
 H                     2.7044    1.86473  -6.26888 
 H                     1.93825   0.33186  -5.79604 
 H                     5.80885  -0.88325   0.03394 
 H                     6.44768  -0.08506  -1.40628 
 H                     7.2566   -1.52117  -0.76077 
 H                     5.5268   -2.73339  -3.88593 
 H                     6.30911  -1.17315  -3.63827 
 H                     7.09469  -2.63644  -3.06235 
 H                     6.70694  -4.51499  -1.87667 
 H                     5.40341  -5.47432  -1.19508 
 H                     4.50139  -4.97387   0.79366 
 H                     2.96319  -5.53574   1.38999 
 H                     3.64758  -6.27094  -0.04992 
 H                    -0.12966  -3.97108   1.87635 
 H                    -0.38579  -5.69553   2.21527 
 H                     1.24177  -5.01983   2.23969 
 H                    -0.12607  -7.40448   0.27464 
 H                     1.55485  -7.14141   0.71294 
 H                    -3.03832  -5.42658  -0.51756 
 H                    -2.42234  -4.77861   0.99489 
 Cl                    1.05693  -0.79218   3.69191 
 H                     5.18981  -4.7152   -2.76876 
 H                     1.05913  -7.01452  -0.98052 
 H                    -2.10459  -6.4562    0.54987 
 H                    -4.25642  -1.86619  -4.70565 
 H                     3.69036   0.52333  -5.66716 
 H                    -7.99193   1.56549  -3.02649 
 H                    -4.54015  -5.20696   4.89876 
 H                    -3.41551  -6.48805   4.39899 
 H                    -7.33963   2.94586   6.23735 
 H                    -6.72254   3.95658   4.90701 
 H                    -3.87877   8.14685   1.07449 
 H                    -3.87149   6.85972   2.30655 
 H                     7.16086  -4.76501   3.47933 
 H                     8.08687  -4.61544   4.98552 
 H                     10.55042   5.00543   0.00582 
 H                     10.50106   6.40479   1.08239 
 H                     6.99522   2.60304  -2.41149 
 H                     1.49999   5.49864  -1.63764 
 H                    -4.96814  -2.63183   1.01713 
 C                    -8.68027  -0.13954  -1.95764 
 O                    -9.89808  -0.04295  -2.04591 
 N                    -8.05144  -1.30642  -1.62582 
 H                    -7.05251  -1.3636   -1.76492 
 C                    -8.83472  -2.5177   -1.49844 
 H                    -8.25839  -3.26805  -0.95079 
 H                    -9.75051  -2.29017  -0.95055 
 H                    -9.12322  -2.93288  -2.4721 
 
 NAtoms=    216 NQM=      216 NQMF=       0 NMMI=      0 NMMIF=      0
                NMic=       0 NMicF=      0.
                    Isotopes and Nuclear Properties:
 (Nuclear quadrupole moments (NQMom) in fm**2, nuclear magnetic moments (NMagM)
  in nuclear magnetons)

  Atom         1           2           3           4           5           6           7           8           9          10
 IAtWgt=          12          12          12          12          12          12          12          12          12          12
 AtmWgt=  12.0000000  12.0000000  12.0000000  12.0000000  12.0000000  12.0000000  12.0000000  12.0000000  12.0000000  12.0000000
 NucSpn=           0           0           0           0           0           0           0           0           0           0
 AtZEff=   0.0000000   0.0000000   0.0000000   0.0000000   0.0000000   0.0000000   0.0000000   0.0000000   0.0000000   0.0000000
 NQMom=    0.0000000   0.0000000   0.0000000   0.0000000   0.0000000   0.0000000   0.0000000   0.0000000   0.0000000   0.0000000
 NMagM=    0.0000000   0.0000000   0.0000000   0.0000000   0.0000000   0.0000000   0.0000000   0.0000000   0.0000000   0.0000000
 AtZNuc=   6.0000000   6.0000000   6.0000000   6.0000000   6.0000000   6.0000000   6.0000000   6.0000000   6.0000000   6.0000000

  Atom        11          12          13          14          15          16          17          18          19          20
 IAtWgt=          16          12          12          12          12          12          12          12          12          12
 AtmWgt=  15.9949146  12.0000000  12.0000000  12.0000000  12.0000000  12.0000000  12.0000000  12.0000000  12.0000000  12.0000000
 NucSpn=           0           0           0           0           0           0           0           0           0           0
 AtZEff=   0.0000000   0.0000000   0.0000000   0.0000000   0.0000000   0.0000000   0.0000000   0.0000000   0.0000000   0.0000000
 NQMom=    0.0000000   0.0000000   0.0000000   0.0000000   0.0000000   0.0000000   0.0000000   0.0000000   0.0000000   0.0000000
 NMagM=    0.0000000   0.0000000   0.0000000   0.0000000   0.0000000   0.0000000   0.0000000   0.0000000   0.0000000   0.0000000
 AtZNuc=   8.0000000   6.0000000   6.0000000   6.0000000   6.0000000   6.0000000   6.0000000   6.0000000   6.0000000   6.0000000

  Atom        21          22          23          24          25          26          27          28          29          30
 IAtWgt=          16          12          12          12          16          14          12          12          12          12
 AtmWgt=  15.9949146  12.0000000  12.0000000  12.0000000  15.9949146  14.0030740  12.0000000  12.0000000  12.0000000  12.0000000
 NucSpn=           0           0           0           0           0           2           0           0           0           0
 AtZEff=   0.0000000   0.0000000   0.0000000   0.0000000   0.0000000   0.0000000   0.0000000   0.0000000   0.0000000   0.0000000
 NQMom=    0.0000000   0.0000000   0.0000000   0.0000000   0.0000000   2.0440000   0.0000000   0.0000000   0.0000000   0.0000000
 NMagM=    0.0000000   0.0000000   0.0000000   0.0000000   0.0000000   0.4037610   0.0000000   0.0000000   0.0000000   0.0000000
 AtZNuc=   8.0000000   6.0000000   6.0000000   6.0000000   8.0000000   7.0000000   6.0000000   6.0000000   6.0000000   6.0000000

  Atom        31          32          33          34          35          36          37          38          39          40
 IAtWgt=          14          12          14          14          12          12          12          12          12          14
 AtmWgt=  14.0030740  12.0000000  14.0030740  14.0030740  12.0000000  12.0000000  12.0000000  12.0000000  12.0000000  14.0030740
 NucSpn=           2           0           2           2           0           0           0           0           0           2
 AtZEff=   0.0000000   0.0000000   0.0000000   0.0000000   0.0000000   0.0000000   0.0000000   0.0000000   0.0000000   0.0000000
 NQMom=    2.0440000   0.0000000   2.0440000   2.0440000   0.0000000   0.0000000   0.0000000   0.0000000   0.0000000   2.0440000
 NMagM=    0.4037610   0.0000000   0.4037610   0.4037610   0.0000000   0.0000000   0.0000000   0.0000000   0.0000000   0.4037610
 AtZNuc=   7.0000000   6.0000000   7.0000000   7.0000000   6.0000000   6.0000000   6.0000000   6.0000000   6.0000000   7.0000000

  Atom        41          42          43          44          45          46          47          48          49          50
 IAtWgt=          12          12          12          12          12          59          12          12          12          12
 AtmWgt=  12.0000000  12.0000000  12.0000000  12.0000000  12.0000000  58.9331978  12.0000000  12.0000000  12.0000000  12.0000000
 NucSpn=           0           0           0           0           0           7           0           0           0           0
 AtZEff=   0.0000000   0.0000000   0.0000000   0.0000000   0.0000000   0.0000000   0.0000000   0.0000000   0.0000000   0.0000000
 NQMom=    0.0000000   0.0000000   0.0000000   0.0000000   0.0000000  42.0000000   0.0000000   0.0000000   0.0000000   0.0000000
 NMagM=    0.0000000   0.0000000   0.0000000   0.0000000   0.0000000   4.6270000   0.0000000   0.0000000   0.0000000   0.0000000
 AtZNuc=   6.0000000   6.0000000   6.0000000   6.0000000   6.0000000  27.0000000   6.0000000   6.0000000   6.0000000   6.0000000

  Atom        51          52          53          54          55          56          57          58          59          60
 IAtWgt=          12          12          12          12          12          12          12          12          12          12
 AtmWgt=  12.0000000  12.0000000  12.0000000  12.0000000  12.0000000  12.0000000  12.0000000  12.0000000  12.0000000  12.0000000
 NucSpn=           0           0           0           0           0           0           0           0           0           0
 AtZEff=   0.0000000   0.0000000   0.0000000   0.0000000   0.0000000   0.0000000   0.0000000   0.0000000   0.0000000   0.0000000
 NQMom=    0.0000000   0.0000000   0.0000000   0.0000000   0.0000000   0.0000000   0.0000000   0.0000000   0.0000000   0.0000000
 NMagM=    0.0000000   0.0000000   0.0000000   0.0000000   0.0000000   0.0000000   0.0000000   0.0000000   0.0000000   0.0000000
 AtZNuc=   6.0000000   6.0000000   6.0000000   6.0000000   6.0000000   6.0000000   6.0000000   6.0000000   6.0000000   6.0000000

  Atom        61          62          63          64          65          66          67          68          69          70
 IAtWgt=          12          12          12          12          12          12          14          14          14          14
 AtmWgt=  12.0000000  12.0000000  12.0000000  12.0000000  12.0000000  12.0000000  14.0030740  14.0030740  14.0030740  14.0030740
 NucSpn=           0           0           0           0           0           0           2           2           2           2
 AtZEff=   0.0000000   0.0000000   0.0000000   0.0000000   0.0000000   0.0000000   0.0000000   0.0000000   0.0000000   0.0000000
 NQMom=    0.0000000   0.0000000   0.0000000   0.0000000   0.0000000   0.0000000   2.0440000   2.0440000   2.0440000   2.0440000
 NMagM=    0.0000000   0.0000000   0.0000000   0.0000000   0.0000000   0.0000000   0.4037610   0.4037610   0.4037610   0.4037610
 AtZNuc=   6.0000000   6.0000000   6.0000000   6.0000000   6.0000000   6.0000000   7.0000000   7.0000000   7.0000000   7.0000000

  Atom        71          72          73          74          75          76          77          78          79          80
 IAtWgt=          12          12          12          16          14          12          12          12          12          12
 AtmWgt=  12.0000000  12.0000000  12.0000000  15.9949146  14.0030740  12.0000000  12.0000000  12.0000000  12.0000000  12.0000000
 NucSpn=           0           0           0           0           2           0           0           0           0           0
 AtZEff=   0.0000000   0.0000000   0.0000000   0.0000000   0.0000000   0.0000000   0.0000000   0.0000000   0.0000000   0.0000000
 NQMom=    0.0000000   0.0000000   0.0000000   0.0000000   2.0440000   0.0000000   0.0000000   0.0000000   0.0000000   0.0000000
 NMagM=    0.0000000   0.0000000   0.0000000   0.0000000   0.4037610   0.0000000   0.0000000   0.0000000   0.0000000   0.0000000
 AtZNuc=   6.0000000   6.0000000   6.0000000   8.0000000   7.0000000   6.0000000   6.0000000   6.0000000   6.0000000   6.0000000

  Atom        81          82          83          84          85          86          87          88          89          90
 IAtWgt=          16          14          12          12          12          12          12          12          12          12
 AtmWgt=  15.9949146  14.0030740  12.0000000  12.0000000  12.0000000  12.0000000  12.0000000  12.0000000  12.0000000  12.0000000
 NucSpn=           0           2           0           0           0           0           0           0           0           0
 AtZEff=   0.0000000   0.0000000   0.0000000   0.0000000   0.0000000   0.0000000   0.0000000   0.0000000   0.0000000   0.0000000
 NQMom=    0.0000000   2.0440000   0.0000000   0.0000000   0.0000000   0.0000000   0.0000000   0.0000000   0.0000000   0.0000000
 NMagM=    0.0000000   0.4037610   0.0000000   0.0000000   0.0000000   0.0000000   0.0000000   0.0000000   0.0000000   0.0000000
 AtZNuc=   8.0000000   7.0000000   6.0000000   6.0000000   6.0000000   6.0000000   6.0000000   6.0000000   6.0000000   6.0000000

  Atom        91          92          93          94          95          96          97          98          99         100
 IAtWgt=          35          12          12          35          35           1           1           1           1           1
 AtmWgt=  34.9688527  12.0000000  12.0000000  34.9688527  34.9688527   1.0078250   1.0078250   1.0078250   1.0078250   1.0078250
 NucSpn=           3           0           0           3           3           1           1           1           1           1
 AtZEff=   0.0000000   0.0000000   0.0000000   0.0000000   0.0000000   0.0000000   0.0000000   0.0000000   0.0000000   0.0000000
 NQMom=   -8.1650000   0.0000000   0.0000000  -8.1650000  -8.1650000   0.0000000   0.0000000   0.0000000   0.0000000   0.0000000
 NMagM=    0.8218740   0.0000000   0.0000000   0.8218740   0.8218740   2.7928460   2.7928460   2.7928460   2.7928460   2.7928460
 AtZNuc=  17.0000000   6.0000000   6.0000000  17.0000000  17.0000000   1.0000000   1.0000000   1.0000000   1.0000000   1.0000000

  Atom       101         102         103         104         105         106         107         108         109         110
 IAtWgt=           1           1           1           1           1           1           1           1           1           1
 AtmWgt=   1.0078250   1.0078250   1.0078250   1.0078250   1.0078250   1.0078250   1.0078250   1.0078250   1.0078250   1.0078250
 NucSpn=           1           1           1           1           1           1           1           1           1           1
 AtZEff=   0.0000000   0.0000000   0.0000000   0.0000000   0.0000000   0.0000000   0.0000000   0.0000000   0.0000000   0.0000000
 NQMom=    0.0000000   0.0000000   0.0000000   0.0000000   0.0000000   0.0000000   0.0000000   0.0000000   0.0000000   0.0000000
 NMagM=    2.7928460   2.7928460   2.7928460   2.7928460   2.7928460   2.7928460   2.7928460   2.7928460   2.7928460   2.7928460
 AtZNuc=   1.0000000   1.0000000   1.0000000   1.0000000   1.0000000   1.0000000   1.0000000   1.0000000   1.0000000   1.0000000

  Atom       111         112         113         114         115         116         117         118         119         120
 IAtWgt=           1           1           1           1           1           1           1           1           1           1
 AtmWgt=   1.0078250   1.0078250   1.0078250   1.0078250   1.0078250   1.0078250   1.0078250   1.0078250   1.0078250   1.0078250
 NucSpn=           1           1           1           1           1           1           1           1           1           1
 AtZEff=   0.0000000   0.0000000   0.0000000   0.0000000   0.0000000   0.0000000   0.0000000   0.0000000   0.0000000   0.0000000
 NQMom=    0.0000000   0.0000000   0.0000000   0.0000000   0.0000000   0.0000000   0.0000000   0.0000000   0.0000000   0.0000000
 NMagM=    2.7928460   2.7928460   2.7928460   2.7928460   2.7928460   2.7928460   2.7928460   2.7928460   2.7928460   2.7928460
 AtZNuc=   1.0000000   1.0000000   1.0000000   1.0000000   1.0000000   1.0000000   1.0000000   1.0000000   1.0000000   1.0000000

  Atom       121         122         123         124         125         126         127         128         129         130
 IAtWgt=           1           1           1           1           1           1           1           1           1           1
 AtmWgt=   1.0078250   1.0078250   1.0078250   1.0078250   1.0078250   1.0078250   1.0078250   1.0078250   1.0078250   1.0078250
 NucSpn=           1           1           1           1           1           1           1           1           1           1
 AtZEff=   0.0000000   0.0000000   0.0000000   0.0000000   0.0000000   0.0000000   0.0000000   0.0000000   0.0000000   0.0000000
 NQMom=    0.0000000   0.0000000   0.0000000   0.0000000   0.0000000   0.0000000   0.0000000   0.0000000   0.0000000   0.0000000
 NMagM=    2.7928460   2.7928460   2.7928460   2.7928460   2.7928460   2.7928460   2.7928460   2.7928460   2.7928460   2.7928460
 AtZNuc=   1.0000000   1.0000000   1.0000000   1.0000000   1.0000000   1.0000000   1.0000000   1.0000000   1.0000000   1.0000000

  Atom       131         132         133         134         135         136         137         138         139         140
 IAtWgt=           1           1           1           1           1           1           1           1           1           1
 AtmWgt=   1.0078250   1.0078250   1.0078250   1.0078250   1.0078250   1.0078250   1.0078250   1.0078250   1.0078250   1.0078250
 NucSpn=           1           1           1           1           1           1           1           1           1           1
 AtZEff=   0.0000000   0.0000000   0.0000000   0.0000000   0.0000000   0.0000000   0.0000000   0.0000000   0.0000000   0.0000000
 NQMom=    0.0000000   0.0000000   0.0000000   0.0000000   0.0000000   0.0000000   0.0000000   0.0000000   0.0000000   0.0000000
 NMagM=    2.7928460   2.7928460   2.7928460   2.7928460   2.7928460   2.7928460   2.7928460   2.7928460   2.7928460   2.7928460
 AtZNuc=   1.0000000   1.0000000   1.0000000   1.0000000   1.0000000   1.0000000   1.0000000   1.0000000   1.0000000   1.0000000

  Atom       141         142         143         144         145         146         147         148         149         150
 IAtWgt=           1           1           1           1           1           1           1           1           1           1
 AtmWgt=   1.0078250   1.0078250   1.0078250   1.0078250   1.0078250   1.0078250   1.0078250   1.0078250   1.0078250   1.0078250
 NucSpn=           1           1           1           1           1           1           1           1           1           1
 AtZEff=   0.0000000   0.0000000   0.0000000   0.0000000   0.0000000   0.0000000   0.0000000   0.0000000   0.0000000   0.0000000
 NQMom=    0.0000000   0.0000000   0.0000000   0.0000000   0.0000000   0.0000000   0.0000000   0.0000000   0.0000000   0.0000000
 NMagM=    2.7928460   2.7928460   2.7928460   2.7928460   2.7928460   2.7928460   2.7928460   2.7928460   2.7928460   2.7928460
 AtZNuc=   1.0000000   1.0000000   1.0000000   1.0000000   1.0000000   1.0000000   1.0000000   1.0000000   1.0000000   1.0000000

  Atom       151         152         153         154         155         156         157         158         159         160
 IAtWgt=           1           1           1           1           1           1           1           1           1           1
 AtmWgt=   1.0078250   1.0078250   1.0078250   1.0078250   1.0078250   1.0078250   1.0078250   1.0078250   1.0078250   1.0078250
 NucSpn=           1           1           1           1           1           1           1           1           1           1
 AtZEff=   0.0000000   0.0000000   0.0000000   0.0000000   0.0000000   0.0000000   0.0000000   0.0000000   0.0000000   0.0000000
 NQMom=    0.0000000   0.0000000   0.0000000   0.0000000   0.0000000   0.0000000   0.0000000   0.0000000   0.0000000   0.0000000
 NMagM=    2.7928460   2.7928460   2.7928460   2.7928460   2.7928460   2.7928460   2.7928460   2.7928460   2.7928460   2.7928460
 AtZNuc=   1.0000000   1.0000000   1.0000000   1.0000000   1.0000000   1.0000000   1.0000000   1.0000000   1.0000000   1.0000000

  Atom       161         162         163         164         165         166         167         168         169         170
 IAtWgt=           1           1           1           1           1           1           1           1           1           1
 AtmWgt=   1.0078250   1.0078250   1.0078250   1.0078250   1.0078250   1.0078250   1.0078250   1.0078250   1.0078250   1.0078250
 NucSpn=           1           1           1           1           1           1           1           1           1           1
 AtZEff=   0.0000000   0.0000000   0.0000000   0.0000000   0.0000000   0.0000000   0.0000000   0.0000000   0.0000000   0.0000000
 NQMom=    0.0000000   0.0000000   0.0000000   0.0000000   0.0000000   0.0000000   0.0000000   0.0000000   0.0000000   0.0000000
 NMagM=    2.7928460   2.7928460   2.7928460   2.7928460   2.7928460   2.7928460   2.7928460   2.7928460   2.7928460   2.7928460
 AtZNuc=   1.0000000   1.0000000   1.0000000   1.0000000   1.0000000   1.0000000   1.0000000   1.0000000   1.0000000   1.0000000

  Atom       171         172         173         174         175         176         177         178         179         180
 IAtWgt=           1           1           1           1           1           1           1           1           1           1
 AtmWgt=   1.0078250   1.0078250   1.0078250   1.0078250   1.0078250   1.0078250   1.0078250   1.0078250   1.0078250   1.0078250
 NucSpn=           1           1           1           1           1           1           1           1           1           1
 AtZEff=   0.0000000   0.0000000   0.0000000   0.0000000   0.0000000   0.0000000   0.0000000   0.0000000   0.0000000   0.0000000
 NQMom=    0.0000000   0.0000000   0.0000000   0.0000000   0.0000000   0.0000000   0.0000000   0.0000000   0.0000000   0.0000000
 NMagM=    2.7928460   2.7928460   2.7928460   2.7928460   2.7928460   2.7928460   2.7928460   2.7928460   2.7928460   2.7928460
 AtZNuc=   1.0000000   1.0000000   1.0000000   1.0000000   1.0000000   1.0000000   1.0000000   1.0000000   1.0000000   1.0000000

  Atom       181         182         183         184         185         186         187         188         189         190
 IAtWgt=           1           1           1           1           1           1           1           1          35           1
 AtmWgt=   1.0078250   1.0078250   1.0078250   1.0078250   1.0078250   1.0078250   1.0078250   1.0078250  34.9688527   1.0078250
 NucSpn=           1           1           1           1           1           1           1           1           3           1
 AtZEff=   0.0000000   0.0000000   0.0000000   0.0000000   0.0000000   0.0000000   0.0000000   0.0000000   0.0000000   0.0000000
 NQMom=    0.0000000   0.0000000   0.0000000   0.0000000   0.0000000   0.0000000   0.0000000   0.0000000  -8.1650000   0.0000000
 NMagM=    2.7928460   2.7928460   2.7928460   2.7928460   2.7928460   2.7928460   2.7928460   2.7928460   0.8218740   2.7928460
 AtZNuc=   1.0000000   1.0000000   1.0000000   1.0000000   1.0000000   1.0000000   1.0000000   1.0000000  17.0000000   1.0000000

  Atom       191         192         193         194         195         196         197         198         199         200
 IAtWgt=           1           1           1           1           1           1           1           1           1           1
 AtmWgt=   1.0078250   1.0078250   1.0078250   1.0078250   1.0078250   1.0078250   1.0078250   1.0078250   1.0078250   1.0078250
 NucSpn=           1           1           1           1           1           1           1           1           1           1
 AtZEff=   0.0000000   0.0000000   0.0000000   0.0000000   0.0000000   0.0000000   0.0000000   0.0000000   0.0000000   0.0000000
 NQMom=    0.0000000   0.0000000   0.0000000   0.0000000   0.0000000   0.0000000   0.0000000   0.0000000   0.0000000   0.0000000
 NMagM=    2.7928460   2.7928460   2.7928460   2.7928460   2.7928460   2.7928460   2.7928460   2.7928460   2.7928460   2.7928460
 AtZNuc=   1.0000000   1.0000000   1.0000000   1.0000000   1.0000000   1.0000000   1.0000000   1.0000000   1.0000000   1.0000000

  Atom       201         202         203         204         205         206         207         208         209         210
 IAtWgt=           1           1           1           1           1           1           1           1          12          16
 AtmWgt=   1.0078250   1.0078250   1.0078250   1.0078250   1.0078250   1.0078250   1.0078250   1.0078250  12.0000000  15.9949146
 NucSpn=           1           1           1           1           1           1           1           1           0           0
 AtZEff=   0.0000000   0.0000000   0.0000000   0.0000000   0.0000000   0.0000000   0.0000000   0.0000000   0.0000000   0.0000000
 NQMom=    0.0000000   0.0000000   0.0000000   0.0000000   0.0000000   0.0000000   0.0000000   0.0000000   0.0000000   0.0000000
 NMagM=    2.7928460   2.7928460   2.7928460   2.7928460   2.7928460   2.7928460   2.7928460   2.7928460   0.0000000   0.0000000
 AtZNuc=   1.0000000   1.0000000   1.0000000   1.0000000   1.0000000   1.0000000   1.0000000   1.0000000   6.0000000   8.0000000

  Atom       211         212         213         214         215         216
 IAtWgt=          14           1          12           1           1           1
 AtmWgt=  14.0030740   1.0078250  12.0000000   1.0078250   1.0078250   1.0078250
 NucSpn=           2           1           0           1           1           1
 AtZEff=   0.0000000   0.0000000   0.0000000   0.0000000   0.0000000   0.0000000
 NQMom=    2.0440000   0.0000000   0.0000000   0.0000000   0.0000000   0.0000000
 NMagM=    0.4037610   2.7928460   0.0000000   2.7928460   2.7928460   2.7928460
 AtZNuc=   7.0000000   1.0000000   6.0000000   1.0000000   1.0000000   1.0000000
 Leave Link  101 at Wed Aug 28 08:52:49 2024, MaxMem= 26843545600 cpu:         3.2
 (Enter /apps/z_install_tree/linux-rocky8-ivybridge/gcc-12.2.0/gaussian-09-D.01-wczn3gur5lpur3omlkzwa2l5ecyxp5ef/g09/l202.exe)
 Symmetry turned off by external request.
 Stoichiometry    C77H116Cl4CoN12O6(1+)
 Framework group  C1[X(C77H116Cl4CoN12O6)]
 Deg. of freedom   642
 Full point group                 C1      NOp   1
                          Input orientation:                          
 ---------------------------------------------------------------------
 Center     Atomic      Atomic             Coordinates (Angstroms)
 Number     Number       Type             X           Y           Z
 ---------------------------------------------------------------------
      1          6           0        7.669504   -4.060260    4.145293
      2          6           0        6.683795   -3.022412    4.725806
      3          6           0        5.868476   -2.228232    3.725137
      4          6           0        6.130363   -0.872130    3.485962
      5          6           0        4.784491   -2.820256    3.057087
      6          6           0        5.328520   -0.120768    2.622119
      7          6           0        3.977921   -2.077022    2.194278
      8          6           0        4.245777   -0.722309    1.978705
      9          6           0       -3.619099    7.103594    1.274464
     10          6           0       -2.138047    6.794139    0.998098
     11          8           0       -1.921084    6.534358   -0.412852
     12          6           0       -1.650051    5.556830    1.738262
     13          6           0       -6.675787    2.967608    5.372937
     14          6           0       -5.237166    2.584127    5.767634
     15          6           0       -4.497429    1.970603    4.605086
     16          6           0       -4.758962    0.635627    4.260283
     17          6           0       -3.609022    2.695311    3.807183
     18          6           0       -4.141449    0.028419    3.174729
     19          6           0       -2.967267    2.099608    2.719243
     20          6           0       -3.223901    0.762291    2.419730
     21          8           0       -2.559817    0.093208    1.416827
     22          6           0       -3.800256   -5.499268    4.149777
     23          6           0       -2.657764   -4.482072    4.048425
     24          6           0       -2.928008   -3.356872    3.053160
     25          8           0       -3.953309   -3.332335    2.357887
     26          7           0       -1.958041   -2.424606    2.934144
     27          6           0       -7.766068    1.059856   -2.081368
     28          6           0       -8.091423    2.016555   -0.911642
     29          6           0       -7.255496    3.311569   -0.835927
     30          6           0       -6.040493    3.233965    0.099357
     31          7           0       -4.993713    2.324972   -0.363285
     32          6           0       -3.749435    2.649521   -0.716227
     33          7           0       -3.300408    3.903720   -0.756463
     34          7           0       -2.878076    1.645785   -1.000302
     35          6           0        9.941375    5.858581    0.323185
     36          6           0        8.610033    5.394412    0.940352
     37          6           0        7.759862    4.487916    0.093205
     38          6           0        8.049335    3.948186   -1.134148
     39          6           0        6.455252    3.981635    0.455881
     40          7           0        7.002823    3.141395   -1.561437
     41          6           0        6.012239    3.137966   -0.601775
     42          6           0        5.623573    4.153541    1.576941
     43          6           0        4.780342    2.474990   -0.564318
     44          6           0        4.395861    3.498839    1.620169
     45          6           0        3.980429    2.667233    0.558554
     46         27           0        1.172074   -1.789354   -1.965290
     47          6           0       -1.362006   -2.982806   -2.220543
     48          6           0       -2.854327   -2.494582   -2.197000
     49          6           0       -2.794169   -1.284601   -3.193651
     50          6           0       -1.353600   -0.811716   -3.032713
     51          6           0       -0.866192    0.477610   -3.442884
     52          6           0        0.477435    0.792020   -3.327329
     53          6           0        1.195731    2.114296   -3.734347
     54          6           0        2.594395    1.537593   -4.097446
     55          6           0        2.673065    0.361858   -3.160624
     56          6           0        3.873536   -0.212738   -2.791074
     57          6           0        4.038247   -1.394652   -2.080297
     58          6           0        5.416400   -1.974279   -1.824222
     59          6           0        5.067905   -3.311043   -1.092441
     60          6           0        3.542091   -3.292061   -1.001810
     61          6           0        2.805043   -4.268072   -0.357447
     62          6           0        1.371171   -4.286390   -0.428188
     63          6           0        0.419158   -5.311450    0.228675
     64          6           0       -0.898277   -5.025737   -0.558533
     65          6           0       -0.750557   -3.546128   -0.919286
     66          6           0       -1.040566   -3.938078   -3.389197
     67          7           0       -0.604382   -1.719084   -2.439658
     68          7           0        1.441430   -0.100022   -2.848300
     69          7           0        3.023198   -2.166989   -1.638904
     70          7           0        0.703483   -3.343560   -1.054582
     71          6           0       -3.880470   -3.550245   -2.584022
     72          6           0       -3.181166   -1.995294   -0.756879
     73          6           0       -4.546465   -1.382243   -0.550971
     74          8           0       -4.913573   -0.360012   -1.182623
     75          7           0       -5.355568   -1.979942    0.331535
     76          6           0       -3.205486   -1.567659   -4.653774
     77          6           0       -1.865695    1.432269   -4.079240
     78          6           0        0.629493    2.952474   -4.890592
     79          6           0        1.452883    3.027696   -2.484880
     80          6           0        0.299893    3.858088   -1.964847
     81          8           0       -0.848986    3.394680   -1.835744
     82          7           0        0.564881    5.124447   -1.594472
     83          6           0        2.734631    1.041473   -5.549915
     84          6           0        6.278425   -1.058504   -0.933829
     85          6           0        6.122683   -2.148489   -3.180349
     86          6           0        5.620118   -4.577075   -1.773310
     87          6           0        3.516994   -5.318552    0.475293
     88          6           0        0.277464   -4.973971    1.728609
     89          6           0        0.758250   -6.799649    0.049872
     90          6           0       -2.182366   -5.436558    0.159837
     91         17           0        0.537705    2.399953    3.797548
     92          6           0        0.520273    1.476710    2.334194
     93          6           0        0.744692    0.150695    2.270577
     94         17           0        0.161960    2.392764    0.897023
     95         17           0        0.793238   -0.717317    0.742893
     96          1           0        7.241749   -2.327760    5.364364
     97          1           0        5.988372   -3.550686    5.391302
     98          1           0        6.963201   -0.394819    3.997047
     99          1           0        4.558202   -3.869480    3.235671
    100          1           0        5.541352    0.930567    2.449755
    101          1           0        3.138857   -2.545657    1.691835
    102          1           0        3.625181   -0.144387    1.302039
    103          1           0        8.479315   -3.582372    3.586485
    104          1           0       -1.522544    7.654350    1.297848
    105          1           0       -0.625859    5.307375    1.449676
    106          1           0       -2.287631    4.699741    1.510983
    107          1           0       -1.669376    5.728107    2.818128
    108          1           0       -2.160855    7.328039   -0.910329
    109          1           0       -4.251623    6.472106    0.639828
    110          1           0       -4.700995    3.458992    6.151272
    111          1           0       -5.269803    1.857913    6.588077
    112          1           0       -3.393794    3.733926    4.046332
    113          1           0       -5.462087    0.061735    4.859193
    114          1           0       -2.249155    2.656190    2.130454
    115          1           0       -4.347139   -1.002661    2.911912
    116          1           0       -2.201845    0.725933    0.769905
    117          1           0       -7.078866    2.244783    4.655452
    118          1           0       -2.418768   -4.039819    5.023478
    119          1           0       -1.735885   -4.970598    3.713311
    120          1           0       -2.064876   -1.646705    2.290088
    121          1           0       -1.150241   -2.423808    3.537554
    122          1           0       -4.315556   -5.575482    3.189389
    123          1           0       -9.152531    2.266001   -0.997062
    124          1           0       -7.991907    1.467972    0.036320
    125          1           0       -7.886681    4.121379   -0.450902
    126          1           0       -6.926893    3.620941   -1.835737
    127          1           0       -5.611791    4.229172    0.243387
    128          1           0       -6.352775    2.896880    1.095153
    129          1           0       -5.213917    1.328866   -0.421124
    130          1           0       -2.014699    1.905436   -1.475373
    131          1           0       -3.327018    0.774894   -1.277430
    132          1           0       -3.879802    4.695511   -0.544961
    133          1           0       -2.346185    4.069624   -1.089652
    134          1           0       -6.713037    0.774645   -2.090437
    135          1           0        8.019271    6.278251    1.219969
    136          1           0        8.821859    4.880852    1.889265
    137          1           0        8.927732    4.073641   -1.750627
    138          1           0        5.940130    4.787736    2.400386
    139          1           0        3.749189    3.618796    2.484892
    140          1           0        4.464262    1.811236   -1.361350
    141          1           0        3.026112    2.153383    0.622979
    142          1           0        9.783250    6.508842   -0.542637
    143          1           0       -3.490411   -0.520781   -2.847155
    144          1           0        3.386291    2.270005   -3.901753
    145          1           0        4.772139    0.282944   -3.141325
    146          1           0        5.475601   -3.264056   -0.075052
    147          1           0       -0.822443   -5.608387   -1.482589
    148          1           0       -1.065579   -2.927883   -0.074220
    149          1           0       -1.234835   -3.464281   -4.349845
    150          1           0       -1.620645   -4.862047   -3.335409
    151          1           0        0.022876   -4.184719   -3.357073
    152          1           0       -4.888260   -3.119577   -2.602259
    153          1           0       -3.697034   -3.971732   -3.572563
    154          1           0       -3.895880   -4.373617   -1.867920
    155          1           0       -2.449514   -1.240338   -0.467270
    156          1           0       -3.079769   -2.819057   -0.052110
    157          1           0       -6.245884   -1.537174    0.521000
    158          1           0       -3.092470   -0.664206   -5.256646
    159          1           0       -2.608183   -2.348505   -5.125606
    160          1           0       -1.715915    2.457594   -3.752178
    161          1           0       -1.806832    1.416426   -5.173100
    162          1           0       -2.891457    1.170448   -3.817697
    163          1           0        1.400014    3.651800   -5.234009
    164          1           0       -0.237805    3.544461   -4.597574
    165          1           0        0.341899    2.329982   -5.738936
    166          1           0        2.286851    3.697071   -2.720814
    167          1           0        1.790118    2.405884   -1.647249
    168          1           0       -0.175699    5.676266   -1.161794
    169          1           0        2.704400    1.864728   -6.268884
    170          1           0        1.938249    0.331858   -5.796042
    171          1           0        5.808845   -0.883248    0.033942
    172          1           0        6.447684   -0.085064   -1.406281
    173          1           0        7.256596   -1.521168   -0.760767
    174          1           0        5.526802   -2.733385   -3.885926
    175          1           0        6.309110   -1.173153   -3.638267
    176          1           0        7.094693   -2.636438   -3.062350
    177          1           0        6.706935   -4.514989   -1.876671
    178          1           0        5.403410   -5.474321   -1.195082
    179          1           0        4.501388   -4.973873    0.793656
    180          1           0        2.963189   -5.535737    1.389988
    181          1           0        3.647579   -6.270939   -0.049923
    182          1           0       -0.129661   -3.971075    1.876353
    183          1           0       -0.385790   -5.695530    2.215271
    184          1           0        1.241767   -5.019834    2.239691
    185          1           0       -0.126069   -7.404475    0.274642
    186          1           0        1.554845   -7.141406    0.712944
    187          1           0       -3.038317   -5.426575   -0.517564
    188          1           0       -2.422341   -4.778609    0.994889
    189         17           0        1.056931   -0.792178    3.691914
    190          1           0        5.189814   -4.715198   -2.768764
    191          1           0        1.059129   -7.014523   -0.980521
    192          1           0       -2.104589   -6.456201    0.549870
    193          1           0       -4.256420   -1.866191   -4.705645
    194          1           0        3.690363    0.523328   -5.667160
    195          1           0       -7.991929    1.565493   -3.026485
    196          1           0       -4.540148   -5.206959    4.898757
    197          1           0       -3.415509   -6.488049    4.398988
    198          1           0       -7.339633    2.945857    6.237347
    199          1           0       -6.722537    3.956575    4.907012
    200          1           0       -3.878765    8.146847    1.074493
    201          1           0       -3.871487    6.859722    2.306545
    202          1           0        7.160862   -4.765009    3.479334
    203          1           0        8.086871   -4.615435    4.985517
    204          1           0       10.550418    5.005431    0.005816
    205          1           0       10.501058    6.404790    1.082387
    206          1           0        6.995220    2.603040   -2.411485
    207          1           0        1.499986    5.498636   -1.637642
    208          1           0       -4.968135   -2.631829    1.017127
    209          6           0       -8.680270   -0.139536   -1.957637
    210          8           0       -9.898082   -0.042946   -2.045915
    211          7           0       -8.051442   -1.306418   -1.625818
    212          1           0       -7.052508   -1.363598   -1.764916
    213          6           0       -8.834720   -2.517703   -1.498443
    214          1           0       -8.258390   -3.268045   -0.950786
    215          1           0       -9.750507   -2.290169   -0.950552
    216          1           0       -9.123224   -2.932884   -2.472105
 ---------------------------------------------------------------------
 Rotational constants (GHZ):      0.0202561      0.0132232      0.0116197
 Leave Link  202 at Wed Aug 28 08:52:49 2024, MaxMem= 26843545600 cpu:         1.0
 (Enter /apps/z_install_tree/linux-rocky8-ivybridge/gcc-12.2.0/gaussian-09-D.01-wczn3gur5lpur3omlkzwa2l5ecyxp5ef/g09/l301.exe)
 General basis read from cards:  (5D, 7F)
 Centers:       1      2      3      4      5      6      7      8      9     10
 Centers:      12     13     14     15     16     17     18     19     20     22
 Centers:      23     24     27     28     29     30     32     35     36     37
 Centers:      38     39     41     42     43     44     45     47     48     49
 Centers:      50     51     52     53     54     55     56     57     58     59
 Centers:      60     61     62     63     64     65     66     71     72     73
 Centers:      76     77     78     79     80     83     84     85     86     87
 Centers:      88     89     90     92     93    209    213     96     97     98
 Centers:      99    100    101    102    103    104    105    106    107    108
 Centers:     109    110    111    112    113    114    115    116    117    118
 Centers:     119    120    121    122    123    124    125    126    127    128
 Centers:     129    130    131    132    133    134    135    136    137    138
 Centers:     139    140    141    142    143    144    145    146    147    148
 Centers:     149    150    151    152    153    154    155    156    157    158
 Centers:     159    160    161    162    163    164    165    166    167    168
 Centers:     169    170    171    172    173    174    175    176    177    178
 Centers:     179    180    181    182    183    184    185    186    187    188
 Centers:     190    191    192    193    194    195    196    197    198    199
 Centers:     200    201    202    203    204    205    206    207    208    212
 Centers:     214    215    216     11     21     25     74     81    210     26
 Centers:      31     33     34     40     67     68     69     70     75     82
 Centers:     211     91     94     95    189
 6-31G(d,p)
 ****
 Centers:      46
 S 1 1.00
     Exponent=  7.1760000000D+00 Coefficients=  1.0000000000D+00
 S 1 1.00
     Exponent=  2.0090000000D+00 Coefficients=  1.0000000000D+00
 S 1 1.00
     Exponent=  8.0550000000D-01 Coefficients=  1.0000000000D+00
 S 1 1.00
     Exponent=  1.0700000000D-01 Coefficients=  1.0000000000D+00
 S 1 1.00
     Exponent=  3.7500000000D-02 Coefficients=  1.0000000000D+00
 P 1 1.00
     Exponent=  2.1390000000D+01 Coefficients=  1.0000000000D+00
 P 1 1.00
     Exponent=  2.6500000000D+00 Coefficients=  1.0000000000D+00
 P 1 1.00
     Exponent=  8.6190000000D-01 Coefficients=  1.0000000000D+00
 P 1 1.00
     Exponent=  8.0000000000D-02 Coefficients=  1.0000000000D+00
 P 1 1.00
     Exponent=  2.3000000000D-02 Coefficients=  1.0000000000D+00
 D 1 1.00
     Exponent=  3.9250000000D+01 Coefficients=  1.0000000000D+00
 D 1 1.00
     Exponent=  1.0780000000D+01 Coefficients=  1.0000000000D+00
 D 1 1.00
     Exponent=  3.4960000000D+00 Coefficients=  1.0000000000D+00
 D 1 1.00
     Exponent=  1.0660000000D+00 Coefficients=  1.0000000000D+00
 D 1 1.00
     Exponent=  2.6060000000D-01 Coefficients=  1.0000000000D+00
 F 1 1.00
     Exponent=  2.7800000000D+00 Coefficients=  1.0000000000D+00
 ****
 ======================================================================================================
                                       Pseudopotential Parameters
 ======================================================================================================
  Center     Atomic      Valence      Angular      Power
  Number     Number     Electrons     Momentum     of R      Exponent        Coefficient   SO-Coeffient
 ======================================================================================================
    1          6
                                   No pseudopotential on this center.
    2          6
                                   No pseudopotential on this center.
    3          6
                                   No pseudopotential on this center.
    4          6
                                   No pseudopotential on this center.
    5          6
                                   No pseudopotential on this center.
    6          6
                                   No pseudopotential on this center.
    7          6
                                   No pseudopotential on this center.
    8          6
                                   No pseudopotential on this center.
    9          6
                                   No pseudopotential on this center.
   10          6
                                   No pseudopotential on this center.
   11          8
                                   No pseudopotential on this center.
   12          6
                                   No pseudopotential on this center.
   13          6
                                   No pseudopotential on this center.
   14          6
                                   No pseudopotential on this center.
   15          6
                                   No pseudopotential on this center.
   16          6
                                   No pseudopotential on this center.
   17          6
                                   No pseudopotential on this center.
   18          6
                                   No pseudopotential on this center.
   19          6
                                   No pseudopotential on this center.
   20          6
                                   No pseudopotential on this center.
   21          8
                                   No pseudopotential on this center.
   22          6
                                   No pseudopotential on this center.
   23          6
                                   No pseudopotential on this center.
   24          6
                                   No pseudopotential on this center.
   25          8
                                   No pseudopotential on this center.
   26          7
                                   No pseudopotential on this center.
   27          6
                                   No pseudopotential on this center.
   28          6
                                   No pseudopotential on this center.
   29          6
                                   No pseudopotential on this center.
   30          6
                                   No pseudopotential on this center.
   31          7
                                   No pseudopotential on this center.
   32          6
                                   No pseudopotential on this center.
   33          7
                                   No pseudopotential on this center.
   34          7
                                   No pseudopotential on this center.
   35          6
                                   No pseudopotential on this center.
   36          6
                                   No pseudopotential on this center.
   37          6
                                   No pseudopotential on this center.
   38          6
                                   No pseudopotential on this center.
   39          6
                                   No pseudopotential on this center.
   40          7
                                   No pseudopotential on this center.
   41          6
                                   No pseudopotential on this center.
   42          6
                                   No pseudopotential on this center.
   43          6
                                   No pseudopotential on this center.
   44          6
                                   No pseudopotential on this center.
   45          6
                                   No pseudopotential on this center.
   46         27           17
                                      D and up 
                                                     1      434.1076104      -10.00000000    0.00000000
                                                     2       78.8402758      -66.72402760    0.00000000
                                                     2       19.6037749      -11.71922430    0.00000000
                                      S - D
                                                     0      151.2307582        3.00000000    0.00000000
                                                     1      169.6790026       20.15531100    0.00000000
                                                     2       64.9909423      413.37622440    0.00000000
                                                     2       12.5076287      133.87277050    0.00000000
                                      P - D
                                                     0       92.7319924        5.00000000    0.00000000
                                                     1      121.1910183        6.18923530    0.00000000
                                                     2       48.6265909      326.32159190    0.00000000
                                                     2       11.9966971       73.87889700    0.00000000
   47          6
                                   No pseudopotential on this center.
   48          6
                                   No pseudopotential on this center.
   49          6
                                   No pseudopotential on this center.
   50          6
                                   No pseudopotential on this center.
   51          6
                                   No pseudopotential on this center.
   52          6
                                   No pseudopotential on this center.
   53          6
                                   No pseudopotential on this center.
   54          6
                                   No pseudopotential on this center.
   55          6
                                   No pseudopotential on this center.
   56          6
                                   No pseudopotential on this center.
   57          6
                                   No pseudopotential on this center.
   58          6
                                   No pseudopotential on this center.
   59          6
                                   No pseudopotential on this center.
   60          6
                                   No pseudopotential on this center.
   61          6
                                   No pseudopotential on this center.
   62          6
                                   No pseudopotential on this center.
   63          6
                                   No pseudopotential on this center.
   64          6
                                   No pseudopotential on this center.
   65          6
                                   No pseudopotential on this center.
   66          6
                                   No pseudopotential on this center.
   67          7
                                   No pseudopotential on this center.
   68          7
                                   No pseudopotential on this center.
   69          7
                                   No pseudopotential on this center.
   70          7
                                   No pseudopotential on this center.
   71          6
                                   No pseudopotential on this center.
   72          6
                                   No pseudopotential on this center.
   73          6
                                   No pseudopotential on this center.
   74          8
                                   No pseudopotential on this center.
   75          7
                                   No pseudopotential on this center.
   76          6
                                   No pseudopotential on this center.
   77          6
                                   No pseudopotential on this center.
   78          6
                                   No pseudopotential on this center.
   79          6
                                   No pseudopotential on this center.
   80          6
                                   No pseudopotential on this center.
   81          8
                                   No pseudopotential on this center.
   82          7
                                   No pseudopotential on this center.
   83          6
                                   No pseudopotential on this center.
   84          6
                                   No pseudopotential on this center.
   85          6
                                   No pseudopotential on this center.
   86          6
                                   No pseudopotential on this center.
   87          6
                                   No pseudopotential on this center.
   88          6
                                   No pseudopotential on this center.
   89          6
                                   No pseudopotential on this center.
   90          6
                                   No pseudopotential on this center.
   91         17
                                   No pseudopotential on this center.
   92          6
                                   No pseudopotential on this center.
   93          6
                                   No pseudopotential on this center.
   94         17
                                   No pseudopotential on this center.
   95         17
                                   No pseudopotential on this center.
   96          1
                                   No pseudopotential on this center.
   97          1
                                   No pseudopotential on this center.
   98          1
                                   No pseudopotential on this center.
   99          1
                                   No pseudopotential on this center.
  100          1
                                   No pseudopotential on this center.
  101          1
                                   No pseudopotential on this center.
  102          1
                                   No pseudopotential on this center.
  103          1
                                   No pseudopotential on this center.
  104          1
                                   No pseudopotential on this center.
  105          1
                                   No pseudopotential on this center.
  106          1
                                   No pseudopotential on this center.
  107          1
                                   No pseudopotential on this center.
  108          1
                                   No pseudopotential on this center.
  109          1
                                   No pseudopotential on this center.
  110          1
                                   No pseudopotential on this center.
  111          1
                                   No pseudopotential on this center.
  112          1
                                   No pseudopotential on this center.
  113          1
                                   No pseudopotential on this center.
  114          1
                                   No pseudopotential on this center.
  115          1
                                   No pseudopotential on this center.
  116          1
                                   No pseudopotential on this center.
  117          1
                                   No pseudopotential on this center.
  118          1
                                   No pseudopotential on this center.
  119          1
                                   No pseudopotential on this center.
  120          1
                                   No pseudopotential on this center.
  121          1
                                   No pseudopotential on this center.
  122          1
                                   No pseudopotential on this center.
  123          1
                                   No pseudopotential on this center.
  124          1
                                   No pseudopotential on this center.
  125          1
                                   No pseudopotential on this center.
  126          1
                                   No pseudopotential on this center.
  127          1
                                   No pseudopotential on this center.
  128          1
                                   No pseudopotential on this center.
  129          1
                                   No pseudopotential on this center.
  130          1
                                   No pseudopotential on this center.
  131          1
                                   No pseudopotential on this center.
  132          1
                                   No pseudopotential on this center.
  133          1
                                   No pseudopotential on this center.
  134          1
                                   No pseudopotential on this center.
  135          1
                                   No pseudopotential on this center.
  136          1
                                   No pseudopotential on this center.
  137          1
                                   No pseudopotential on this center.
  138          1
                                   No pseudopotential on this center.
  139          1
                                   No pseudopotential on this center.
  140          1
                                   No pseudopotential on this center.
  141          1
                                   No pseudopotential on this center.
  142          1
                                   No pseudopotential on this center.
  143          1
                                   No pseudopotential on this center.
  144          1
                                   No pseudopotential on this center.
  145          1
                                   No pseudopotential on this center.
  146          1
                                   No pseudopotential on this center.
  147          1
                                   No pseudopotential on this center.
  148          1
                                   No pseudopotential on this center.
  149          1
                                   No pseudopotential on this center.
  150          1
                                   No pseudopotential on this center.
  151          1
                                   No pseudopotential on this center.
  152          1
                                   No pseudopotential on this center.
  153          1
                                   No pseudopotential on this center.
  154          1
                                   No pseudopotential on this center.
  155          1
                                   No pseudopotential on this center.
  156          1
                                   No pseudopotential on this center.
  157          1
                                   No pseudopotential on this center.
  158          1
                                   No pseudopotential on this center.
  159          1
                                   No pseudopotential on this center.
  160          1
                                   No pseudopotential on this center.
  161          1
                                   No pseudopotential on this center.
  162          1
                                   No pseudopotential on this center.
  163          1
                                   No pseudopotential on this center.
  164          1
                                   No pseudopotential on this center.
  165          1
                                   No pseudopotential on this center.
  166          1
                                   No pseudopotential on this center.
  167          1
                                   No pseudopotential on this center.
  168          1
                                   No pseudopotential on this center.
  169          1
                                   No pseudopotential on this center.
  170          1
                                   No pseudopotential on this center.
  171          1
                                   No pseudopotential on this center.
  172          1
                                   No pseudopotential on this center.
  173          1
                                   No pseudopotential on this center.
  174          1
                                   No pseudopotential on this center.
  175          1
                                   No pseudopotential on this center.
  176          1
                                   No pseudopotential on this center.
  177          1
                                   No pseudopotential on this center.
  178          1
                                   No pseudopotential on this center.
  179          1
                                   No pseudopotential on this center.
  180          1
                                   No pseudopotential on this center.
  181          1
                                   No pseudopotential on this center.
  182          1
                                   No pseudopotential on this center.
  183          1
                                   No pseudopotential on this center.
  184          1
                                   No pseudopotential on this center.
  185          1
                                   No pseudopotential on this center.
  186          1
                                   No pseudopotential on this center.
  187          1
                                   No pseudopotential on this center.
  188          1
                                   No pseudopotential on this center.
  189         17
                                   No pseudopotential on this center.
  190          1
                                   No pseudopotential on this center.
  191          1
                                   No pseudopotential on this center.
  192          1
                                   No pseudopotential on this center.
  193          1
                                   No pseudopotential on this center.
  194          1
                                   No pseudopotential on this center.
  195          1
                                   No pseudopotential on this center.
  196          1
                                   No pseudopotential on this center.
  197          1
                                   No pseudopotential on this center.
  198          1
                                   No pseudopotential on this center.
  199          1
                                   No pseudopotential on this center.
  200          1
                                   No pseudopotential on this center.
  201          1
                                   No pseudopotential on this center.
  202          1
                                   No pseudopotential on this center.
  203          1
                                   No pseudopotential on this center.
  204          1
                                   No pseudopotential on this center.
  205          1
                                   No pseudopotential on this center.
  206          1
                                   No pseudopotential on this center.
  207          1
                                   No pseudopotential on this center.
  208          1
                                   No pseudopotential on this center.
  209          6
                                   No pseudopotential on this center.
  210          8
                                   No pseudopotential on this center.
  211          7
                                   No pseudopotential on this center.
  212          1
                                   No pseudopotential on this center.
  213          6
                                   No pseudopotential on this center.
  214          1
                                   No pseudopotential on this center.
  215          1
                                   No pseudopotential on this center.
  216          1
                                   No pseudopotential on this center.
 ======================================================================================================
 Ernie: Thresh=  0.10000D-02 Tol=  0.10000D-05 Strict=F.
  2034 basis functions,  3740 primitive gaussians,  2141 cartesian basis functions
   397 alpha electrons      397 beta electrons
       nuclear repulsion energy     26136.4597845376 Hartrees.
 IExCor=  402 DFT=T Ex+Corr=B3LYP ExCW=0 ScaHFX=  0.200000
 ScaDFX=  0.800000  0.720000  1.000000  0.810000 ScalE2=  1.000000  1.000000
 IRadAn=      5 IRanWt=     -1 IRanGd=            0 ICorTp=0 IEmpDi=131
 NAtoms=  216 NActive=  216 NUniq=  216 SFac= 1.00D+00 NAtFMM=   60 NAOKFM=T Big=T
 Integral buffers will be    131072 words long.
 Raffenetti 2 integral format.
 Two-electron integral symmetry is turned off.
 R6Disp:  Grimme-D3 Dispersion energy=       -0.3841781487 Hartrees.
 Nuclear repulsion after empirical dispersion term =    26136.0756063889 Hartrees.
 Using the following non-standard input for PCM:
 eps=4.0
 --- end of non-standard input.
 ------------------------------------------------------------------------------
 Polarizable Continuum Model (PCM)
 =================================
 Model                : PCM (using non-symmetric T matrix).
 Atomic radii         : SMD-Coulomb.
 Polarization charges : Total charges.
 Charge compensation  : None.
 Solution method      : On-the-fly selection.
[...]
 Alpha virt. eigenvalues --    5.53303   5.53490   5.54850   5.56503   5.59184
 Alpha virt. eigenvalues --    5.60068   5.61426   5.61954   5.62468   5.63102
 Alpha virt. eigenvalues --    5.64578   5.66195   5.66315   5.68327   5.70199
 Alpha virt. eigenvalues --    5.71316   5.76036   5.78849   5.79999   5.81965
 Alpha virt. eigenvalues --    5.87964   5.88842   5.89076   5.89444   5.89870
 Alpha virt. eigenvalues --    5.92640   5.93645   5.95837   5.96328   6.04531
 Alpha virt. eigenvalues --    6.07472   6.10529   6.12484   6.16241   6.17788
 Alpha virt. eigenvalues --    6.19733   6.82069   6.85485   6.86135   6.87363
 Alpha virt. eigenvalues --    6.88051   6.91419   6.93250   6.97048   6.98934
 Alpha virt. eigenvalues --    6.99202   7.00616   7.01899   7.03212   7.04913
 Alpha virt. eigenvalues --    7.05046   7.05225   7.06673   7.08408   7.09505
 Alpha virt. eigenvalues --    7.10285   7.11372   7.13746   7.18713   7.19578
 Alpha virt. eigenvalues --    7.22044   7.23994   7.24869   7.26843   7.27969
 Alpha virt. eigenvalues --    7.28482   7.30595   7.31815   7.39132   7.40826
 Alpha virt. eigenvalues --    7.43867   7.44095   7.55872   9.89756   9.97557
 Alpha virt. eigenvalues --   10.15031  10.27437  16.61095  16.63379  16.71989
 Alpha virt. eigenvalues --   16.88012  17.04836  23.42702  23.71915  23.72874
 Alpha virt. eigenvalues --   23.73357  23.76445  23.83195  23.83857  23.84341
 Alpha virt. eigenvalues --   23.85008  23.85643  23.85764  23.86311  23.88153
 Alpha virt. eigenvalues --   23.88569  23.89446  23.89777  23.90664  23.91423
 Alpha virt. eigenvalues --   23.91586  23.92012  23.92387  23.93167  23.93876
 Alpha virt. eigenvalues --   23.94098  23.95096  23.95370  23.95578  23.95720
 Alpha virt. eigenvalues --   23.96422  23.96714  23.96880  23.97079  23.97621
 Alpha virt. eigenvalues --   23.97665  23.98632  23.98762  23.98914  23.99551
 Alpha virt. eigenvalues --   24.00146  24.00227  24.00518  24.01204  24.01918
 Alpha virt. eigenvalues --   24.02278  24.02660  24.03438  24.03674  24.03904
 Alpha virt. eigenvalues --   24.04216  24.04841  24.05398  24.05869  24.06841
 Alpha virt. eigenvalues --   24.07192  24.07563  24.07719  24.08966  24.10278
 Alpha virt. eigenvalues --   24.10767  24.11077  24.12106  24.12531  24.12710
 Alpha virt. eigenvalues --   24.13393  24.14003  24.18951  24.19273  24.21671
 Alpha virt. eigenvalues --   24.23121  24.23508  24.24137  24.26142  24.27761
 Alpha virt. eigenvalues --   24.28860  24.31057  24.36143  24.38332  26.31833
 Alpha virt. eigenvalues --   26.38071  26.49239  26.51426  26.86873  27.18251
 Alpha virt. eigenvalues --   27.23941  27.34278  27.44671  27.54259  27.93110
 Alpha virt. eigenvalues --   28.46029  35.58008  35.58388  35.59045  35.62681
 Alpha virt. eigenvalues --   35.65699  35.68168  35.69150  35.69563  35.81801
 Alpha virt. eigenvalues --   35.83808  35.85775  35.91424  49.94337  50.03566
 Alpha virt. eigenvalues --   50.04388  50.06086  50.06808  50.08329  77.31775
 Alpha virt. eigenvalues --   77.32950  77.37210  77.46518  77.55847 215.92280
 Alpha virt. eigenvalues --  216.01271 216.21969 216.35624
          Condensed to atoms (all electrons):
 Mulliken charges:
               1
     1  C   -0.411252
     2  C   -0.052883
     3  C    0.326774
     4  C   -0.293059
     5  C   -0.538625
     6  C   -0.287743
     7  C    0.230480
     8  C   -0.385498
     9  C   -0.445146
    10  C    0.279814
    11  O   -0.459994
    12  C   -0.495459
    13  C   -0.396435
    14  C   -0.074518
    15  C    0.227438
    16  C   -0.268404
    17  C   -0.196120
    18  C   -0.315572
    19  C   -0.130347
    20  C    0.048476
    21  O   -0.134048
    22  C   -0.397135
    23  C   -0.578798
    24  C    0.414853
    25  O   -0.358891
    26  N   -0.226172
    27  C    0.093242
    28  C   -0.134050
    29  C   -0.139092
    30  C   -0.184038
    31  N    0.071787
    32  C    0.163674
    33  N   -0.423763
    34  N   -0.991843
    35  C   -0.490367
    36  C   -0.172611
    37  C    0.387661
    38  C   -0.229383
    39  C    0.457405
    40  N   -0.095778
    41  C   -0.100897
    42  C   -0.478433
    43  C   -0.068541
    44  C   -0.578861
    45  C   -0.054409
    46  Co  -1.218267
    47  C   -0.210020
    48  C    0.124569
    49  C   -0.075500
    50  C   -0.016561
    51  C   -0.309601
    52  C    0.134518
    53  C    0.368746
    54  C   -0.033007
    55  C    0.475280
    56  C   -0.504310
    57  C    0.460655
    58  C    0.080461
    59  C    0.079634
    60  C    0.364519
    61  C   -0.063590
    62  C    0.332201
    63  C    0.258639
    64  C   -0.124149
    65  C   -0.150791
    66  C   -0.135950
    67  N    0.816891
    68  N    0.128865
    69  N   -0.370435
    70  N    0.049208
    71  C   -0.358155
    72  C   -0.499440
    73  C    0.098668
    74  O   -0.552739
    75  N   -0.303848
    76  C   -0.464119
    77  C   -0.474086
    78  C   -0.452126
    79  C   -0.357781
    80  C    0.345762
    81  O   -0.643092
    82  N   -0.336971
    83  C   -0.408699
    84  C   -0.632390
    85  C   -0.357995
    86  C   -0.466827
    87  C   -0.368710
    88  C   -0.920480
    89  C   -0.250117
    90  C   -0.534726
    91  Cl  -0.676809
    92  C    1.543602
    93  C    1.479016
    94  Cl  -0.076844
    95  Cl  -0.188607
    96  H    0.084862
    97  H    0.092304
    98  H    0.092142
    99  H    0.095878
   100  H    0.162278
   101  H    0.162271
   102  H    0.154443
   103  H    0.094289
   104  H    0.104958
   105  H    0.130949
   106  H    0.142875
   107  H    0.128833
   108  H    0.264513
   109  H    0.094886
   110  H    0.083842
   111  H    0.093419
   112  H    0.098645
   113  H    0.100291
   114  H    0.126785
   115  H    0.157823
   116  H    0.257567
   117  H    0.088157
   118  H    0.108848
   119  H    0.127693
   120  H    0.278482
   121  H    0.203200
   122  H    0.114640
   123  H    0.132710
   124  H    0.087624
   125  H    0.105513
   126  H    0.094409
   127  H    0.111601
   128  H    0.162024
   129  H    0.347800
   130  H    0.441879
   131  H    0.322370
   132  H    0.239306
   133  H    0.375749
   134  H    0.119146
   135  H    0.102479
   136  H    0.108162
   137  H    0.108170
   138  H    0.100748
   139  H    0.116097
   140  H    0.153262
   141  H    0.139491
   142  H    0.106061
   143  H    0.101169
   144  H    0.083144
   145  H    0.086665
   146  H    0.116278
   147  H    0.086452
   148  H    0.083399
   149  H    0.130861
   150  H    0.125210
   151  H    0.150133
   152  H    0.137530
   153  H    0.141057
   154  H    0.129484
   155  H    0.154112
   156  H    0.164225
   157  H    0.231270
   158  H    0.120218
   159  H    0.118463
   160  H    0.124420
   161  H    0.134696
   162  H    0.132683
   163  H    0.125031
   164  H    0.105199
   165  H    0.118083
   166  H    0.091723
   167  H    0.132155
   168  H    0.289912
   169  H    0.116948
   170  H    0.133797
   171  H    0.219571
   172  H    0.093016
   173  H    0.114231
   174  H    0.106749
   175  H    0.105288
   176  H    0.117479
   177  H    0.109104
   178  H    0.114156
   179  H    0.134287
   180  H    0.110237
   181  H    0.141093
   182  H    0.139308
   183  H    0.121458
   184  H    0.131336
   185  H    0.112463
   186  H    0.110750
   187  H    0.120304
   188  H    0.144209
   189  Cl  -0.943008
   190  H    0.103251
   191  H    0.108192
   192  H    0.122934
   193  H    0.126858
   194  H    0.125977
   195  H    0.115092
   196  H    0.108338
   197  H    0.111005
   198  H    0.109636
   199  H    0.087304
   200  H    0.121109
   201  H    0.118378
   202  H    0.090730
   203  H    0.106703
   204  H    0.097448
   205  H    0.108407
   206  H    0.171724
   207  H    0.185278
   208  H    0.338388
   209  C    0.053624
   210  O   -0.489809
   211  N   -0.247160
   212  H    0.241448
   213  C   -0.176312
   214  H    0.107757
   215  H    0.136568
   216  H    0.113378
 Sum of Mulliken charges =   1.00000
 Mulliken charges with hydrogens summed into heavy atoms:
               1
     1  C   -0.119530
     2  C    0.124283
     3  C    0.326774
     4  C   -0.200917
     5  C   -0.442747
     6  C   -0.125464
     7  C    0.392751
     8  C   -0.231055
     9  C   -0.110773
    10  C    0.384772
    11  O   -0.195480
    12  C   -0.092802
    13  C   -0.111338
    14  C    0.102743
    15  C    0.227438
    16  C   -0.168113
    17  C   -0.097475
    18  C   -0.157749
    19  C   -0.003563
    20  C    0.048476
    21  O    0.123519
    22  C   -0.063151
    23  C   -0.342257
    24  C    0.414853
    25  O   -0.358891
    26  N    0.255510
    27  C    0.327480
    28  C    0.086285
    29  C    0.060830
    30  C    0.089587
    31  N    0.419586
    32  C    0.163674
    33  N    0.191291
    34  N   -0.227595
    35  C   -0.178451
    36  C    0.038029
    37  C    0.387661
    38  C   -0.121213
    39  C    0.457405
    40  N    0.075946
    41  C   -0.100897
    42  C   -0.377686
    43  C    0.084721
    44  C   -0.462764
    45  C    0.085081
    46  Co  -1.218267
    47  C   -0.210020
    48  C    0.124569
    49  C    0.025669
    50  C   -0.016561
    51  C   -0.309601
    52  C    0.134518
    53  C    0.368746
    54  C    0.050137
    55  C    0.475280
    56  C   -0.417645
    57  C    0.460655
    58  C    0.080461
    59  C    0.195912
    60  C    0.364519
    61  C   -0.063590
    62  C    0.332201
    63  C    0.258639
    64  C   -0.037696
    65  C   -0.067393
    66  C    0.270255
    67  N    0.816891
    68  N    0.128865
    69  N   -0.370435
    70  N    0.049208
    71  C    0.049916
    72  C   -0.181103
    73  C    0.098668
    74  O   -0.552739
    75  N    0.265811
    76  C   -0.098579
    77  C   -0.082287
    78  C   -0.103813
    79  C   -0.133903
    80  C    0.345762
    81  O   -0.643092
    82  N    0.138219
    83  C   -0.031978
    84  C   -0.205571
    85  C   -0.028479
    86  C   -0.140316
    87  C    0.016907
    88  C   -0.528378
    89  C    0.081289
    90  C   -0.147280
    91  Cl  -0.676809
    92  C    1.543602
    93  C    1.479016
    94  Cl  -0.076844
    95  Cl  -0.188607
   189  Cl  -0.943008
   209  C    0.053624
   210  O   -0.489809
   211  N   -0.005712
   213  C    0.181392
 Electronic spatial extent (au):  <R**2>=         106777.4835
 Charge=              1.0000 electrons
 Dipole moment (field-independent basis, Debye):
    X=             -1.3853    Y=              9.2301    Z=              1.1544  Tot=              9.4046
 Quadrupole moment (field-independent basis, Debye-Ang):
   XX=           -580.1547   YY=           -498.3222   ZZ=           -588.7288
   XY=            -17.7723   XZ=            -34.8211   YZ=            -15.5593
 Traceless Quadrupole moment (field-independent basis, Debye-Ang):
   XX=            -24.4195   YY=             57.4130   ZZ=            -32.9936
   XY=            -17.7723   XZ=            -34.8211   YZ=            -15.5593
 Octapole moment (field-independent basis, Debye-Ang**2):
  XXX=            779.7407  YYY=            470.7897  ZZZ=             21.9522  XYY=           -218.5673
  XXY=            183.5683  XXZ=            152.1747  XZZ=             -3.6786  YZZ=             10.9814
  YYZ=             39.6453  XYZ=            -85.7473
 Hexadecapole moment (field-independent basis, Debye-Ang**3):
 XXXX=         -80449.7001 YYYY=         -36062.8907 ZZZZ=         -25807.9939 XXXY=            618.1542
 XXXZ=          -2626.1017 YYYX=          -1249.0900 YYYZ=           -136.3482 ZZZX=           -551.2126
 ZZZY=           -200.8582 XXYY=         -17469.0961 XXZZ=         -16421.5017 YYZZ=         -10667.5342
 XXYZ=              3.1250 YYXZ=             30.4851 ZZXY=             37.5589
 N-N= 2.691596801279D+04 E-N=-6.947885813702D+04  KE= 6.425370433072D+03
 Leave Link  601 at Thu Aug 29 11:38:49 2024, MaxMem= 26843545600 cpu:        38.4
 (Enter /apps/z_install_tree/linux-rocky8-ivybridge/gcc-12.2.0/gaussian-09-D.01-wczn3gur5lpur3omlkzwa2l5ecyxp5ef/g09/l9999.exe)
 1\1\GINC-K117\SP\RB3LYP\Gen\C77H116Cl4Co1N12O6(1+)\Z5112331\29-Aug-202
 4\0\\#p b3lyp/gen nosymm guess=read em=gd3 int=ultrafine scf=xqc scfcy
 c=96\\Int1p_Cl4_freq_l\\1,1\C,0,7.669504,-4.06026,4.145293\C,0,6.68379
 5,-3.022412,4.725806\C,0,5.868476,-2.228232,3.725137\C,0,6.130363,-0.8
 7213,3.485962\C,0,4.784491,-2.820256,3.057087\C,0,5.32852,-0.120768,2.
 622119\C,0,3.977921,-2.077022,2.194278\C,0,4.245777,-0.722309,1.978705
 \C,0,-3.619099,7.103594,1.274464\C,0,-2.138047,6.794139,0.998098\O,0,-
 1.921084,6.534358,-0.412852\C,0,-1.650051,5.55683,1.738262\C,0,-6.6757
 87,2.967608,5.372937\C,0,-5.237166,2.584127,5.767634\C,0,-4.497429,1.9
 70603,4.605086\C,0,-4.758962,0.635627,4.260283\C,0,-3.609022,2.695311,
 3.807183\C,0,-4.141449,0.028419,3.174729\C,0,-2.967267,2.099608,2.7192
 43\C,0,-3.223901,0.762291,2.41973\O,0,-2.559817,0.093208,1.416827\C,0,
 -3.800256,-5.499268,4.149777\C,0,-2.657764,-4.482072,4.048425\C,0,-2.9
 28008,-3.356872,3.05316\O,0,-3.953309,-3.332335,2.357887\N,0,-1.958041
 ,-2.424606,2.934144\C,0,-7.766068,1.059856,-2.081368\C,0,-8.091423,2.0
 16555,-0.911642\C,0,-7.255496,3.311569,-0.835927\C,0,-6.040493,3.23396
 5,0.099357\N,0,-4.993713,2.324972,-0.363285\C,0,-3.749435,2.649521,-0.
 716227\N,0,-3.300408,3.90372,-0.756463\N,0,-2.878076,1.645785,-1.00030
 2\C,0,9.941375,5.858581,0.323185\C,0,8.610033,5.394412,0.940352\C,0,7.
 759862,4.487916,0.093205\C,0,8.049335,3.948186,-1.134148\C,0,6.455252,
 3.981635,0.455881\N,0,7.002823,3.141395,-1.561437\C,0,6.012239,3.13796
 6,-0.601775\C,0,5.623573,4.153541,1.576941\C,0,4.780342,2.47499,-0.564
 318\C,0,4.395861,3.498839,1.620169\C,0,3.980429,2.667233,0.558554\Co,0
 ,1.172074,-1.789354,-1.96529\C,0,-1.362006,-2.982806,-2.220543\C,0,-2.
 854327,-2.494582,-2.197\C,0,-2.794169,-1.284601,-3.193651\C,0,-1.3536,
 -0.811716,-3.032713\C,0,-0.866192,0.47761,-3.442884\C,0,0.477435,0.792
 02,-3.327329\C,0,1.195731,2.114296,-3.734347\C,0,2.594395,1.537593,-4.
 097446\C,0,2.673065,0.361858,-3.160624\C,0,3.873536,-0.212738,-2.79107
 4\C,0,4.038247,-1.394652,-2.080297\C,0,5.4164,-1.974279,-1.824222\C,0,
 5.067905,-3.311043,-1.092441\C,0,3.542091,-3.292061,-1.00181\C,0,2.805
 043,-4.268072,-0.357447\C,0,1.371171,-4.28639,-0.428188\C,0,0.419158,-
 5.31145,0.228675\C,0,-0.898277,-5.025737,-0.558533\C,0,-0.750557,-3.54
 6128,-0.919286\C,0,-1.040566,-3.938078,-3.389197\N,0,-0.604382,-1.7190
 84,-2.439658\N,0,1.44143,-0.100022,-2.8483\N,0,3.023198,-2.166989,-1.6
 38904\N,0,0.703483,-3.34356,-1.054582\C,0,-3.88047,-3.550245,-2.584022
 \C,0,-3.181166,-1.995294,-0.756879\C,0,-4.546465,-1.382243,-0.550971\O
 ,0,-4.913573,-0.360012,-1.182623\N,0,-5.355568,-1.979942,0.331535\C,0,
 -3.205486,-1.567659,-4.653774\C,0,-1.865695,1.432269,-4.07924\C,0,0.62
 9493,2.952474,-4.890592\C,0,1.452883,3.027696,-2.48488\C,0,0.299893,3.
 858088,-1.964847\O,0,-0.848986,3.39468,-1.835744\N,0,0.564881,5.124447
 ,-1.594472\C,0,2.734631,1.041473,-5.549915\C,0,6.278425,-1.058504,-0.9
 33829\C,0,6.122683,-2.148489,-3.180349\C,0,5.620118,-4.577075,-1.77331
 \C,0,3.516994,-5.318552,0.475293\C,0,0.277464,-4.973971,1.728609\C,0,0
 .75825,-6.799649,0.049872\C,0,-2.182366,-5.436558,0.159837\Cl,0,0.5377
 05,2.399953,3.797548\C,0,0.520273,1.47671,2.334194\C,0,0.744692,0.1506
 95,2.270577\Cl,0,0.16196,2.392764,0.897023\Cl,0,0.793238,-0.717317,0.7
 42893\H,0,7.241749,-2.32776,5.364364\H,0,5.988372,-3.550686,5.391302\H
 ,0,6.963201,-0.394819,3.997047\H,0,4.558202,-3.86948,3.235671\H,0,5.54
 1352,0.930567,2.449755\H,0,3.138857,-2.545657,1.691835\H,0,3.625181,-0
 .144387,1.302039\H,0,8.479315,-3.582372,3.586485\H,0,-1.522544,7.65435
 ,1.297848\H,0,-0.625859,5.307375,1.449676\H,0,-2.287631,4.699741,1.510
 983\H,0,-1.669376,5.728107,2.818128\H,0,-2.160855,7.328039,-0.910329\H
 ,0,-4.251623,6.472106,0.639828\H,0,-4.700995,3.458992,6.151272\H,0,-5.
 269803,1.857913,6.588077\H,0,-3.393794,3.733926,4.046332\H,0,-5.462087
 ,0.061735,4.859193\H,0,-2.249155,2.65619,2.130454\H,0,-4.347139,-1.002
 661,2.911912\H,0,-2.201845,0.725933,0.769905\H,0,-7.078866,2.244783,4.
 655452\H,0,-2.418768,-4.039819,5.023478\H,0,-1.735885,-4.970598,3.7133
 11\H,0,-2.064876,-1.646705,2.290088\H,0,-1.150241,-2.423808,3.537554\H
 ,0,-4.315556,-5.575482,3.189389\H,0,-9.152531,2.266001,-0.997062\H,0,-
 7.991907,1.467972,0.03632\H,0,-7.886681,4.121379,-0.450902\H,0,-6.9268
 93,3.620941,-1.835737\H,0,-5.611791,4.229172,0.243387\H,0,-6.352775,2.
 89688,1.095153\H,0,-5.213917,1.328866,-0.421124\H,0,-2.014699,1.905436
 ,-1.475373\H,0,-3.327018,0.774894,-1.27743\H,0,-3.879802,4.695511,-0.5
 44961\H,0,-2.346185,4.069624,-1.089652\H,0,-6.713037,0.774645,-2.09043
 7\H,0,8.019271,6.278251,1.219969\H,0,8.821859,4.880852,1.889265\H,0,8.
 927732,4.073641,-1.750627\H,0,5.94013,4.787736,2.400386\H,0,3.749189,3
 .618796,2.484892\H,0,4.464262,1.811236,-1.36135\H,0,3.026112,2.153383,
 0.622979\H,0,9.78325,6.508842,-0.542637\H,0,-3.490411,-0.520781,-2.847
 155\H,0,3.386291,2.270005,-3.901753\H,0,4.772139,0.282944,-3.141325\H,
 0,5.475601,-3.264056,-0.075052\H,0,-0.822443,-5.608387,-1.482589\H,0,-
 1.065579,-2.927883,-0.07422\H,0,-1.234835,-3.464281,-4.349845\H,0,-1.6
 20645,-4.862047,-3.335409\H,0,0.022876,-4.184719,-3.357073\H,0,-4.8882
 6,-3.119577,-2.602259\H,0,-3.697034,-3.971732,-3.572563\H,0,-3.89588,-
 4.373617,-1.86792\H,0,-2.449514,-1.240338,-0.46727\H,0,-3.079769,-2.81
 9057,-0.05211\H,0,-6.245884,-1.537174,0.521\H,0,-3.09247,-0.664206,-5.
 256646\H,0,-2.608183,-2.348505,-5.125606\H,0,-1.715915,2.457594,-3.752
 178\H,0,-1.806832,1.416426,-5.1731\H,0,-2.891457,1.170448,-3.817697\H,
 0,1.400014,3.6518,-5.234009\H,0,-0.237805,3.544461,-4.597574\H,0,0.341
 899,2.329982,-5.738936\H,0,2.286851,3.697071,-2.720814\H,0,1.790118,2.
 405884,-1.647249\H,0,-0.175699,5.676266,-1.161794\H,0,2.7044,1.864728,
 -6.268884\H,0,1.938249,0.331858,-5.796042\H,0,5.808845,-0.883248,0.033
 942\H,0,6.447684,-0.085064,-1.406281\H,0,7.256596,-1.521168,-0.760767\
 H,0,5.526802,-2.733385,-3.885926\H,0,6.30911,-1.173153,-3.638267\H,0,7
 .094693,-2.636438,-3.06235\H,0,6.706935,-4.514989,-1.876671\H,0,5.4034
 1,-5.474321,-1.195082\H,0,4.501388,-4.973873,0.793656\H,0,2.963189,-5.
 535737,1.389988\H,0,3.647579,-6.270939,-0.049923\H,0,-0.129661,-3.9710
 75,1.876353\H,0,-0.38579,-5.69553,2.215271\H,0,1.241767,-5.019834,2.23
 9691\H,0,-0.126069,-7.404475,0.274642\H,0,1.554845,-7.141406,0.712944\
 H,0,-3.038317,-5.426575,-0.517564\H,0,-2.422341,-4.778609,0.994889\Cl,
 0,1.056931,-0.792178,3.691914\H,0,5.189814,-4.715198,-2.768764\H,0,1.0
 59129,-7.014523,-0.980521\H,0,-2.104589,-6.456201,0.54987\H,0,-4.25642
 ,-1.866191,-4.705645\H,0,3.690363,0.523328,-5.66716\H,0,-7.991929,1.56
 5493,-3.026485\H,0,-4.540148,-5.206959,4.898757\H,0,-3.415509,-6.48804
 9,4.398988\H,0,-7.339633,2.945857,6.237347\H,0,-6.722537,3.956575,4.90
 7012\H,0,-3.878765,8.146847,1.074493\H,0,-3.871487,6.859722,2.306545\H
 ,0,7.160862,-4.765009,3.479334\H,0,8.086871,-4.615435,4.985517\H,0,10.
 550418,5.005431,0.005816\H,0,10.501058,6.40479,1.082387\H,0,6.99522,2.
 60304,-2.411485\H,0,1.499986,5.498636,-1.637642\H,0,-4.968135,-2.63182
 9,1.017127\C,0,-8.68027,-0.139536,-1.957637\O,0,-9.898082,-0.042946,-2
 .045915\N,0,-8.051442,-1.306418,-1.625818\H,0,-7.052508,-1.363598,-1.7
 64916\C,0,-8.83472,-2.517703,-1.498443\H,0,-8.25839,-3.268045,-0.95078
 6\H,0,-9.750507,-2.290169,-0.950552\H,0,-9.123224,-2.932884,-2.472105\
 \Version=ES64L-G09RevD.01\HF=-6759.0233428\RMSD=6.988e-10\Dipole=-0.54
 50253,3.6314049,0.4541571\Quadrupole=-18.1552741,42.6851894,-24.529915
 3,-13.2132997,-25.8886282,-11.5679856\PG=C01 [X(C77H116Cl4Co1N12O6)]\\
 @


 This summer one third of the nation will be ill-housed
 ill-nourished and ill-clad. Only they call it a vacation.
 -- Jonas Salk
 Job cpu time:      21 days 18 hours 54 minutes 53.9 seconds.
 File lengths (MBytes):  RWF=   7455 Int=      0 D2E=      0 Chk=    570 Scr=      2
 Normal termination of Gaussian 09 at Thu Aug 29 11:38:51 2024.
