 Entering Gaussian System, Link 0=g09
 Initial command:
 /apps/z_install_tree/linux-rocky8-ivybridge/gcc-12.2.0/gaussian-09-D.01-wczn3gur5lpur3omlkzwa2l5ecyxp5ef/g09/l1.exe "/srv/scratch/z5112331/Gaussian/Cobalamin_parameter/SF4/Gau-2774412.inp" -scrdir="/srv/scratch/z5112331/Gaussian/Cobalamin_parameter/SF4/"
 Entering Link 1 = /apps/z_install_tree/linux-rocky8-ivybridge/gcc-12.2.0/gaussian-09-D.01-wczn3gur5lpur3omlkzwa2l5ecyxp5ef/g09/l1.exe PID=   2774413.
  
 Copyright (c) 1988,1990,1992,1993,1995,1998,2003,2009,2013,
            Gaussian, Inc.  All Rights Reserved.
  
 This is part of the Gaussian(R) 09 program.  It is based on
 the Gaussian(R) 03 system (copyright 2003, Gaussian, Inc.),
 the Gaussian(R) 98 system (copyright 1998, Gaussian, Inc.),
 the Gaussian(R) 94 system (copyright 1995, Gaussian, Inc.),
 the Gaussian 92(TM) system (copyright 1992, Gaussian, Inc.),
 the Gaussian 90(TM) system (copyright 1990, Gaussian, Inc.),
 the Gaussian 88(TM) system (copyright 1988, Gaussian, Inc.),
 the Gaussian 86(TM) system (copyright 1986, Carnegie Mellon
 University), and the Gaussian 82(TM) system (copyright 1983,
 Carnegie Mellon University). Gaussian is a federally registered
 trademark of Gaussian, Inc.
  
 This software contains proprietary and confidential information,
 including trade secrets, belonging to Gaussian, Inc.
  
 This software is provided under written license and may be
 used, copied, transmitted, or stored only in accord with that
 written license.
  
 The following legend is applicable only to US Government
 contracts under FAR:
  
                    RESTRICTED RIGHTS LEGEND
  
 Use, reproduction and disclosure by the US Government is
 subject to restrictions as set forth in subparagraphs (a)
 and (c) of the Commercial Computer Software - Restricted
 Rights clause in FAR 52.227-19.
  
 Gaussian, Inc.
 340 Quinnipiac St., Bldg. 40, Wallingford CT 06492
  
  
 ---------------------------------------------------------------
 Warning -- This program may not be used in any manner that
 competes with the business of Gaussian, Inc. or will provide
 assistance to any competitor of Gaussian, Inc.  The licensee
 of this program is prohibited from giving any competitor of
 Gaussian, Inc. access to this program.  By using this program,
 the user acknowledges that Gaussian, Inc. is engaged in the
 business of creating and licensing software in the field of
 computational chemistry and represents and warrants to the
 licensee that it is not a competitor of Gaussian, Inc. and that
 it will not use this program in any manner prohibited above.
 ---------------------------------------------------------------
  

 Cite this work as:
 Gaussian 09, Revision D.01,
 M. J. Frisch, G. W. Trucks, H. B. Schlegel, G. E. Scuseria, 
 M. A. Robb, J. R. Cheeseman, G. Scalmani, V. Barone, B. Mennucci, 
 G. A. Petersson, H. Nakatsuji, M. Caricato, X. Li, H. P. Hratchian, 
 A. F. Izmaylov, J. Bloino, G. Zheng, J. L. Sonnenberg, M. Hada, 
 M. Ehara, K. Toyota, R. Fukuda, J. Hasegawa, M. Ishida, T. Nakajima, 
 Y. Honda, O. Kitao, H. Nakai, T. Vreven, J. A. Montgomery, Jr., 
 J. E. Peralta, F. Ogliaro, M. Bearpark, J. J. Heyd, E. Brothers, 
 K. N. Kudin, V. N. Staroverov, T. Keith, R. Kobayashi, J. Normand, 
 K. Raghavachari, A. Rendell, J. C. Burant, S. S. Iyengar, J. Tomasi, 
 M. Cossi, N. Rega, J. M. Millam, M. Klene, J. E. Knox, J. B. Cross, 
 V. Bakken, C. Adamo, J. Jaramillo, R. Gomperts, R. E. Stratmann, 
 O. Yazyev, A. J. Austin, R. Cammi, C. Pomelli, J. W. Ochterski, 
 R. L. Martin, K. Morokuma, V. G. Zakrzewski, G. A. Voth, 
 P. Salvador, J. J. Dannenberg, S. Dapprich, A. D. Daniels, 
 O. Farkas, J. B. Foresman, J. V. Ortiz, J. Cioslowski, 
 and D. J. Fox, Gaussian, Inc., Wallingford CT, 2013.
 
 ******************************************
 Gaussian 09:  ES64L-G09RevD.01 24-Apr-2013
                18-Mar-2024 
 ******************************************
 %chk=SF4.chk
 %mem=20GB
 %nprocshared=20
 Will use up to   20 processors via shared memory.
 -----------------------------------
 # freq b3lyp/6-311g(d,p) guess=read
 -----------------------------------
 1/10=4,30=1,38=1/1,3;
 2/12=2,17=6,18=5,40=1/2;
 3/5=4,6=6,7=101,11=2,16=1,25=1,30=1,71=2,74=-5,116=-2,140=1/1,2,3;
 4/5=1/1;
 5/5=2,38=6,98=1/2;
 8/6=4,10=90,11=11/1;
 11/6=1,8=1,9=11,15=111,16=1/1,2,10;
 10/6=1/2;
 6/7=2,8=2,9=2,10=2,18=1,28=1/1;
 7/8=1,10=1,25=1/1,2,3,16;
 1/10=4,30=1/3;
 99//99;
 ---
 SF4
 ---
 Symbolic Z-matrix:
 Charge =  0 Multiplicity = 1
 S                    -0.00093  -1.24792   1.49479 
 S                    -1.83264   1.12285   0.06181 
 S                    -0.00082  -0.94121  -1.66135 
 S                     1.83442   1.12033   0.06183 
 Fe                    0.00093   1.21698  -1.10616 
 Fe                    1.58505  -1.10884  -0.08534 
 Fe                    0.00088   0.96519   1.30304 
 Fe                   -1.58687  -1.10659  -0.08512 
 

 GradGradGradGradGradGradGradGradGradGradGradGradGradGradGradGradGradGrad
 Berny optimization.
 Initialization pass.
 Trust Radius=3.00D-01 FncErr=1.00D-07 GrdErr=1.00D-07
 Number of steps in this run=      2 maximum allowed number of steps=      2.
 GradGradGradGradGradGradGradGradGradGradGradGradGradGradGradGradGradGrad

                          Input orientation:                          
 ---------------------------------------------------------------------
 Center     Atomic      Atomic             Coordinates (Angstroms)
 Number     Number       Type             X           Y           Z
 ---------------------------------------------------------------------
      1         16           0       -0.000928   -1.247924    1.494788
      2         16           0       -1.832644    1.122851    0.061808
      3         16           0       -0.000820   -0.941207   -1.661354
      4         16           0        1.834415    1.120334    0.061828
      5         26           0        0.000930    1.216976   -1.106160
      6         26           0        1.585050   -1.108838   -0.085336
      7         26           0        0.000875    0.965193    1.303036
      8         26           0       -1.586869   -1.106594   -0.085121
 ---------------------------------------------------------------------
                    Distance matrix (angstroms):
                    1          2          3          4          5
     1  S    0.000000
     2  S    3.321022   0.000000
     3  S    3.171011   3.253491   0.000000
     4  S    3.321220   3.667060   3.253828   0.000000
     5  Fe   3.583387   2.176006   2.228452   2.176052   0.000000
     6  Fe   2.243092   4.084448   2.242079   2.247899   2.993481
     7  Fe   2.221409   2.219751   3.524482   2.219580   2.422317
     8  Fe   2.243055   2.247759   2.242190   4.084848   2.993761
                    6          7          8
     6  Fe   0.000000
     7  Fe   2.956145   0.000000
     8  Fe   3.171920   2.956385   0.000000
 Stoichiometry    Fe4S4
 Framework group  C1[X(Fe4S4)]
 Deg. of freedom    18
 Full point group                 C1      NOp   1
 Largest Abelian subgroup         C1      NOp   1
 Largest concise Abelian subgroup C1      NOp   1
                         Standard orientation:                         
 ---------------------------------------------------------------------
 Center     Atomic      Atomic             Coordinates (Angstroms)
 Number     Number       Type             X           Y           Z
 ---------------------------------------------------------------------
      1         16           0       -0.000930   -1.247924    1.494788
      2         16           0       -1.832642    1.122854    0.061808
      3         16           0       -0.000822   -0.941207   -1.661354
      4         16           0        1.834417    1.120330    0.061828
      5         26           0        0.000932    1.216976   -1.106160
      6         26           0        1.585048   -1.108841   -0.085336
      7         26           0        0.000877    0.965193    1.303036
      8         26           0       -1.586871   -1.106591   -0.085121
 ---------------------------------------------------------------------
 Rotational constants (GHZ):      0.6694412      0.6159362      0.5451029
 Standard basis: 6-311G(d,p) (5D, 7F)
 There are   316 symmetry adapted cartesian basis functions of A   symmetry.
 There are   288 symmetry adapted basis functions of A   symmetry.
   288 basis functions,   508 primitive gaussians,   316 cartesian basis functions
    84 alpha electrons       84 beta electrons
       nuclear repulsion energy      2404.7331037774 Hartrees.
 NAtoms=    8 NActive=    8 NUniq=    8 SFac= 1.00D+00 NAtFMM=   60 NAOKFM=F Big=F
 Integral buffers will be    131072 words long.
 Raffenetti 2 integral format.
 Two-electron integral symmetry is turned on.
 One-electron integrals computed using PRISM.
 NBasis=   288 RedAO= T EigKep=  9.15D-03  NBF=   288
 NBsUse=   288 1.00D-06 EigRej= -1.00D+00 NBFU=   288
 Initial guess from the checkpoint file:  "SF4.chk"
 B after Tr=     0.000000    0.000000    0.000000
         Rot=    1.000000    0.000000    0.000000    0.000001 Ang=   0.00 deg.
 Keep R1 ints in memory in canonical form, NReq=882220642.
 Requested convergence on RMS density matrix=1.00D-08 within 128 cycles.
 Requested convergence on MAX density matrix=1.00D-06.
 Requested convergence on             energy=1.00D-06.
 No special actions if energy rises.
 SCF Done:  E(RB3LYP) =  -6647.52649752     A.U. after    1 cycles
            NFock=  1  Conv=0.34D-08     -V/T= 2.0008
 DoSCS=F DFT=T ScalE2(SS,OS)=  1.000000  1.000000
 Range of M.O.s used for correlation:     1   288
 NBasis=   288 NAE=    84 NBE=    84 NFC=     0 NFV=     0
 NROrb=    288 NOA=    84 NOB=    84 NVA=   204 NVB=   204

 **** Warning!!: The smallest alpha delta epsilon is  0.81471804D-01

 Symmetrizing basis deriv contribution to polar:
 IMax=3 JMax=2 DiffMx= 0.00D+00
 G2DrvN: will do     9 centers at a time, making    1 passes.
 Calling FoFCou, ICntrl=  3107 FMM=F I1Cent=   0 AccDes= 0.00D+00.
 End of G2Drv F.D. properties file   721 does not exist.
 End of G2Drv F.D. properties file   722 does not exist.
 End of G2Drv F.D. properties file   788 does not exist.
          IDoAtm=11111111
          Differentiating once with respect to electric field.
                with respect to dipole field.
          Differentiating once with respect to nuclear coordinates.
 Keep R1 ints in memory in canonical form, NReq=881897640.
          There are    27 degrees of freedom in the 1st order CPHF.  IDoFFX=6 NUNeed=     3.
     24 vectors produced by pass  0 Test12= 6.35D-14 3.70D-09 XBig12= 5.29D+02 1.07D+01.
 AX will form    24 AO Fock derivatives at one time.
     24 vectors produced by pass  1 Test12= 6.35D-14 3.70D-09 XBig12= 8.91D+03 2.35D+01.
     24 vectors produced by pass  2 Test12= 6.35D-14 3.70D-09 XBig12= 1.01D+03 7.09D+00.
     24 vectors produced by pass  3 Test12= 6.35D-14 3.70D-09 XBig12= 5.73D+01 1.62D+00.
     24 vectors produced by pass  4 Test12= 6.35D-14 3.70D-09 XBig12= 3.05D+00 4.38D-01.
     24 vectors produced by pass  5 Test12= 6.35D-14 3.70D-09 XBig12= 1.09D-01 6.80D-02.
     24 vectors produced by pass  6 Test12= 6.35D-14 3.70D-09 XBig12= 2.72D-03 8.47D-03.
     24 vectors produced by pass  7 Test12= 6.35D-14 3.70D-09 XBig12= 6.27D-05 1.34D-03.
     24 vectors produced by pass  8 Test12= 6.35D-14 3.70D-09 XBig12= 8.02D-07 2.22D-04.
     17 vectors produced by pass  9 Test12= 6.35D-14 3.70D-09 XBig12= 6.48D-09 1.27D-05.
      4 vectors produced by pass 10 Test12= 6.35D-14 3.70D-09 XBig12= 5.70D-11 1.43D-06.
      3 vectors produced by pass 11 Test12= 6.35D-14 3.70D-09 XBig12= 4.53D-13 1.03D-07.
      3 vectors produced by pass 12 Test12= 6.35D-14 3.70D-09 XBig12= 4.11D-15 8.94D-09.
 InvSVY:  IOpt=1 It=  1 EMax= 2.84D-14
 Solved reduced A of dimension   243 with    27 vectors.
 Isotropic polarizability for W=    0.000000      162.75 Bohr**3.
 End of Minotr F.D. properties file   721 does not exist.
 End of Minotr F.D. properties file   722 does not exist.
 End of Minotr F.D. properties file   788 does not exist.

 **********************************************************************

            Population analysis using the SCF density.

 **********************************************************************

 Orbital symmetries:
       Occupied  (A) (A) (A) (A) (A) (A) (A) (A) (A) (A) (A) (A)
                 (A) (A) (A) (A) (A) (A) (A) (A) (A) (A) (A) (A)
                 (A) (A) (A) (A) (A) (A) (A) (A) (A) (A) (A) (A)
                 (A) (A) (A) (A) (A) (A) (A) (A) (A) (A) (A) (A)
                 (A) (A) (A) (A) (A) (A) (A) (A) (A) (A) (A) (A)
                 (A) (A) (A) (A) (A) (A) (A) (A) (A) (A) (A) (A)
                 (A) (A) (A) (A) (A) (A) (A) (A) (A) (A) (A) (A)
       Virtual   (A) (A) (A) (A) (A) (A) (A) (A) (A) (A) (A) (A)
                 (A) (A) (A) (A) (A) (A) (A) (A) (A) (A) (A) (A)
                 (A) (A) (A) (A) (A) (A) (A) (A) (A) (A) (A) (A)
                 (A) (A) (A) (A) (A) (A) (A) (A) (A) (A) (A) (A)
                 (A) (A) (A) (A) (A) (A) (A) (A) (A) (A) (A) (A)
                 (A) (A) (A) (A) (A) (A) (A) (A) (A) (A) (A) (A)
                 (A) (A) (A) (A) (A) (A) (A) (A) (A) (A) (A) (A)
                 (A) (A) (A) (A) (A) (A) (A) (A) (A) (A) (A) (A)
                 (A) (A) (A) (A) (A) (A) (A) (A) (A) (A) (A) (A)
                 (A) (A) (A) (A) (A) (A) (A) (A) (A) (A) (A) (A)
                 (A) (A) (A) (A) (A) (A) (A) (A) (A) (A) (A) (A)
                 (A) (A) (A) (A) (A) (A) (A) (A) (A) (A) (A) (A)
                 (A) (A) (A) (A) (A) (A) (A) (A) (A) (A) (A) (A)
                 (A) (A) (A) (A) (A) (A) (A) (A) (A) (A) (A) (A)
                 (A) (A) (A) (A) (A) (A) (A) (A) (A) (A) (A) (A)
                 (A) (A) (A) (A) (A) (A) (A) (A) (A) (A) (A) (A)
                 (A) (A) (A) (A) (A) (A) (A) (A) (A) (A) (A) (A)
 The electronic state is 1-A.
 Alpha  occ. eigenvalues -- -256.02568-256.01948-256.00946-256.00945 -88.82658
 Alpha  occ. eigenvalues --  -88.82658 -88.81681 -88.81594 -29.95795 -29.95067
 Alpha  occ. eigenvalues --  -29.93851 -29.93850 -25.83628 -25.83590 -25.83033
 Alpha  occ. eigenvalues --  -25.82809 -25.82475 -25.82360 -25.81792 -25.81791
 Alpha  occ. eigenvalues --  -25.81493 -25.81492 -25.81005 -25.81004  -7.91509
 Alpha  occ. eigenvalues --   -7.91508  -7.90589  -7.90505  -5.87558  -5.87557
 Alpha  occ. eigenvalues --   -5.87383  -5.87382  -5.87378  -5.87378  -5.86556
 Alpha  occ. eigenvalues --   -5.86553  -5.86478  -5.86467  -5.86447  -5.86353
 Alpha  occ. eigenvalues --   -3.41021  -3.40638  -3.39538  -3.39535  -2.19343
 Alpha  occ. eigenvalues --   -2.19053  -2.18760  -2.17877  -2.17844  -2.17743
 Alpha  occ. eigenvalues --   -2.17724  -2.17536  -2.17198  -2.17189  -2.16440
 Alpha  occ. eigenvalues --   -2.16409  -0.71412  -0.68697  -0.67722  -0.67023
 Alpha  occ. eigenvalues --   -0.36360  -0.36171  -0.35965  -0.35313  -0.33561
 Alpha  occ. eigenvalues --   -0.32756  -0.32693  -0.29988  -0.29943  -0.29227
 Alpha  occ. eigenvalues --   -0.28838  -0.27719  -0.24851  -0.23820  -0.23010
 Alpha  occ. eigenvalues --   -0.22683  -0.21932  -0.21275  -0.21239  -0.21199
 Alpha  occ. eigenvalues --   -0.20636  -0.20428  -0.20373  -0.19063
 Alpha virt. eigenvalues --   -0.10916  -0.09295  -0.09292  -0.07589  -0.06788
 Alpha virt. eigenvalues --   -0.06549  -0.05107  -0.02947  -0.02753  -0.02474
 Alpha virt. eigenvalues --   -0.01692  -0.00181   0.10857   0.11078   0.11840
 Alpha virt. eigenvalues --    0.16950   0.17203   0.18146   0.18601   0.19000
 Alpha virt. eigenvalues --    0.19319   0.21371   0.21538   0.21677   0.25734
 Alpha virt. eigenvalues --    0.25957   0.26172   0.31213   0.40966   0.41108
 Alpha virt. eigenvalues --    0.45350   0.47627   0.62310   0.63532   0.65347
 Alpha virt. eigenvalues --    0.65775   0.66203   0.66668   0.66912   0.67817
 Alpha virt. eigenvalues --    0.68161   0.69355   0.70173   0.73735   0.75603
 Alpha virt. eigenvalues --    0.76145   0.76718   0.78991   0.79063   0.81673
 Alpha virt. eigenvalues --    0.82314   0.83984   1.07075   1.09944   1.11378
 Alpha virt. eigenvalues --    1.12211   1.12702   1.16809   1.16945   1.17913
 Alpha virt. eigenvalues --    1.18498   1.19636   1.21471   1.22643   1.23219
 Alpha virt. eigenvalues --    1.23683   1.25118   1.25579   1.25872   1.27474
 Alpha virt. eigenvalues --    1.28972   1.29939   1.32248   1.34203   1.40054
 Alpha virt. eigenvalues --    1.40407   1.42616   1.42943   1.44034   1.44685
 Alpha virt. eigenvalues --    1.44780   1.45100   1.49284   1.61125   1.76250
 Alpha virt. eigenvalues --    1.76920   1.78887   1.81949   1.83427   1.86666
 Alpha virt. eigenvalues --    1.88294   1.92408   1.96013   1.99002   2.03472
 Alpha virt. eigenvalues --    2.07290   2.79378   2.79939   2.81168   2.83007
 Alpha virt. eigenvalues --    2.84063   2.84654   2.84788   2.85017   2.85332
 Alpha virt. eigenvalues --    2.85566   2.85727   2.85935   2.86042   2.86167
 Alpha virt. eigenvalues --    2.86770   2.87519   2.87800   2.88017   2.88814
 Alpha virt. eigenvalues --    2.89526   2.90379   2.91006   2.91055   2.93794
 Alpha virt. eigenvalues --    2.93928   2.94226   2.94970   2.97937   2.98528
 Alpha virt. eigenvalues --    2.99741   3.00592   3.03430   5.53210   5.58061
 Alpha virt. eigenvalues --    5.59102   5.61708   5.63627   5.64990   5.66492
 Alpha virt. eigenvalues --    5.67599   5.68881   5.69573   5.72079   5.72417
 Alpha virt. eigenvalues --    5.72978   5.76072   5.76969   5.77362   5.77443
 Alpha virt. eigenvalues --    5.78524   5.79080   5.81502   7.60876   7.66793
 Alpha virt. eigenvalues --    7.66800   7.70547   7.72583   7.72703   7.73946
 Alpha virt. eigenvalues --    7.74063   7.76551   7.78192   7.81645   7.94327
 Alpha virt. eigenvalues --    7.94969   8.01263   8.07427   8.10312  17.28456
 Alpha virt. eigenvalues --   17.30645  17.31720  17.32861  17.33874  17.35301
 Alpha virt. eigenvalues --   17.36068  17.36857  17.37129  17.37905  17.38225
 Alpha virt. eigenvalues --   17.42454  25.84624  25.85091  25.88103  25.92179
 Alpha virt. eigenvalues --   33.65614  33.68718  33.69571  33.69939  33.71188
 Alpha virt. eigenvalues --   33.71980  33.75632  33.82910  33.83715  33.89324
 Alpha virt. eigenvalues --   33.96341  33.97889 146.89131 146.89660 146.92114
 Alpha virt. eigenvalues --  146.95068 188.76593 188.82314 188.87305 188.88987
 Alpha virt. eigenvalues --  776.70015 776.70724 776.73020 776.76155
          Condensed to atoms (all electrons):
               1          2          3          4          5          6
     1  S   16.677280  -0.041336  -0.075434  -0.041310   0.016251   0.081362
     2  S   -0.041336  16.652968  -0.051713  -0.029815   0.099221   0.004765
     3  S   -0.075434  -0.051713  16.685264  -0.051661   0.095496   0.085673
     4  S   -0.041310  -0.029815  -0.051661  16.652912   0.099220   0.096404
     5  Fe   0.016251   0.099221   0.095496   0.099220  25.089241  -0.086953
     6  Fe   0.081362   0.004765   0.085673   0.096404  -0.086953  25.177117
     7  Fe   0.112211   0.083434   0.015373   0.083459   0.022959  -0.094878
     8  Fe   0.081354   0.096394   0.085667   0.004763  -0.086913  -0.083648
               7          8
     1  S    0.112211   0.081354
     2  S    0.083434   0.096394
     3  S    0.015373   0.085667
     4  S    0.083459   0.004763
     5  Fe   0.022959  -0.086913
     6  Fe  -0.094878  -0.083648
     7  Fe  25.037115  -0.094828
     8  Fe  -0.094828  25.177063
 Mulliken charges:
               1
     1  S   -0.810379
     2  S   -0.813918
     3  S   -0.788665
     4  S   -0.813972
     5  Fe   0.751477
     6  Fe   0.820156
     7  Fe   0.835154
     8  Fe   0.820147
 Sum of Mulliken charges =   0.00000
 Mulliken charges with hydrogens summed into heavy atoms:
               1
     1  S   -0.810379
     2  S   -0.813918
     3  S   -0.788665
     4  S   -0.813972
     5  Fe   0.751477
     6  Fe   0.820156
     7  Fe   0.835154
     8  Fe   0.820147
 APT charges:
               1
     1  S   -0.677097
     2  S   -0.683863
     3  S   -0.660783
     4  S   -0.684054
     5  Fe   0.543103
     6  Fe   0.720426
     7  Fe   0.721787
     8  Fe   0.720480
 Sum of APT charges =   0.00000
 APT charges with hydrogens summed into heavy atoms:
               1
     1  S   -0.677097
     2  S   -0.683863
     3  S   -0.660783
     4  S   -0.684054
     5  Fe   0.543103
     6  Fe   0.720426
     7  Fe   0.721787
     8  Fe   0.720480
 Electronic spatial extent (au):  <R**2>=           2389.1527
 Charge=              0.0000 electrons
 Dipole moment (field-independent basis, Debye):
    X=             -0.0009    Y=             -0.7053    Z=              0.2554  Tot=              0.7501
 Quadrupole moment (field-independent basis, Debye-Ang):
   XX=           -109.5013   YY=           -105.3872   ZZ=           -113.6862
   XY=              0.0045   XZ=             -0.0006   YZ=              0.9873
 Traceless Quadrupole moment (field-independent basis, Debye-Ang):
   XX=              0.0236   YY=              4.1377   ZZ=             -4.1613
   XY=              0.0045   XZ=             -0.0006   YZ=              0.9873
 Octapole moment (field-independent basis, Debye-Ang**2):
  XXX=             -0.1166  YYY=             -3.4094  ZZZ=              9.5102  XYY=              0.0628
  XXY=            -47.0768  XXZ=             -0.3333  XZZ=              0.0240  YZZ=             30.1515
  YYZ=             -5.5385  XYZ=             -0.0012
 Hexadecapole moment (field-independent basis, Debye-Ang**3):
 XXXX=          -1130.7234 YYYY=           -936.6638 ZZZZ=           -855.9234 XXXY=              0.0100
 XXXZ=             -0.0037 YYYX=              0.0564 YYYZ=              8.8007 ZZZX=             -0.0020
 ZZZY=              6.1676 XXYY=           -356.1661 XXZZ=           -324.2781 YYZZ=           -307.8119
 XXYZ=              2.4032 YYXZ=             -0.0010 ZZXY=             -0.0001
 N-N= 2.404733103777D+03 E-N=-2.064098639637D+04  KE= 6.642328960956D+03
  Exact polarizability: 181.053  -0.007 165.947   0.000   0.771 141.251
 Approx polarizability: 404.478   0.011 374.902  -0.007  -7.036 378.344
 Calling FoFJK, ICntrl=    100127 FMM=F ISym2X=0 I1Cent= 0 IOpClX= 0 NMat=1 NMatS=1 NMatT=0.
 Full mass-weighted force constant matrix:
 Low frequencies ---  -12.0350   -9.8606   -7.8911   -0.0019    0.0014    0.0041
 Low frequencies ---  132.6579  132.7170  146.5433
 Diagonal vibrational polarizability:
       26.5274251      26.1553713      22.7176707
 Harmonic frequencies (cm**-1), IR intensities (KM/Mole), Raman scattering
 activities (A**4/AMU), depolarization ratios for plane and unpolarized
 incident light, reduced masses (AMU), force constants (mDyne/A),
 and normal coordinates:
                      1                      2                      3
                      A                      A                      A
 Frequencies --    132.6552               132.7168               146.5425
 Red. masses --     43.7568                44.5191                43.4061
 Frc consts  --      0.4537                 0.4620                 0.5492
 IR Inten    --      2.5008                 2.2013                 3.1695
  Atom  AN      X      Y      Z        X      Y      Z        X      Y      Z
     1  16    -0.37  -0.10   0.02    -0.08   0.46  -0.07     0.02   0.00   0.00
     2  16     0.17  -0.20   0.26     0.04  -0.27   0.23     0.21  -0.22  -0.31
     3  16     0.05   0.02   0.06     0.01  -0.07  -0.29    -0.39  -0.01   0.00
     4  16     0.17   0.29  -0.33     0.04  -0.16   0.10     0.21   0.22   0.31
     5  26    -0.06   0.03  -0.04    -0.01  -0.14   0.19     0.39  -0.01   0.00
     6  26    -0.16   0.24   0.32    -0.14  -0.13  -0.13    -0.19   0.28  -0.22
     7  26     0.40  -0.11  -0.05     0.09   0.50   0.22    -0.04   0.00   0.00
     8  26    -0.20  -0.17  -0.24     0.06  -0.21  -0.25    -0.20  -0.27   0.22
                      4                      5                      6
                      A                      A                      A
 Frequencies --    148.5050               192.2600               261.6719
 Red. masses --     43.2744                45.2148                42.2731
 Frc consts  --      0.5623                 0.9847                 1.7054
 IR Inten    --      1.0840                 3.0385                 0.9603
  Atom  AN      X      Y      Z        X      Y      Z        X      Y      Z
     1  16     0.00   0.01   0.31     0.00   0.12  -0.38     0.00   0.01   0.09
     2  16    -0.07  -0.26  -0.18    -0.18  -0.09  -0.06    -0.48  -0.03  -0.22
     3  16     0.00   0.48   0.03     0.00   0.12   0.43     0.00   0.09  -0.06
     4  16     0.07  -0.26  -0.17     0.18  -0.09  -0.06     0.48  -0.03  -0.22
     5  26     0.01   0.47  -0.04     0.00   0.12   0.16     0.00  -0.25   0.49
     6  26    -0.19  -0.25   0.10     0.47  -0.14  -0.01    -0.12   0.14  -0.01
     7  26     0.00   0.05  -0.16     0.00   0.14  -0.11     0.00  -0.06  -0.23
     8  26     0.19  -0.26   0.10    -0.47  -0.14  -0.01     0.12   0.14  -0.01
                      7                      8                      9
                      A                      A                      A
 Frequencies --    274.1247               276.2307               308.9717
 Red. masses --     42.3693                40.7200                39.0365
 Frc consts  --      1.8758                 1.8306                 2.1956
 IR Inten    --     13.2976                 5.6096                 0.1169
  Atom  AN      X      Y      Z        X      Y      Z        X      Y      Z
     1  16     0.00   0.17  -0.02    -0.06   0.00   0.00     0.04   0.00   0.00
     2  16     0.16   0.03   0.49    -0.19  -0.20  -0.47    -0.02  -0.56   0.17
     3  16     0.00   0.10  -0.13     0.14   0.00   0.00    -0.03   0.00   0.00
     4  16    -0.16   0.02   0.47    -0.19   0.20   0.49    -0.02   0.57  -0.17
     5  26     0.00  -0.07   0.08    -0.25   0.00   0.00     0.21   0.00   0.00
     6  26     0.00  -0.03   0.05    -0.04  -0.14  -0.08    -0.02  -0.34   0.00
     7  26    -0.01  -0.05  -0.64     0.49   0.00  -0.01    -0.15   0.00   0.00
     8  26     0.00  -0.04   0.04    -0.04   0.14   0.09    -0.02   0.33   0.00
                     10                     11                     12
                      A                      A                      A
 Frequencies --    317.0749               318.4153               326.5728
 Red. masses --     38.7442                37.3858                36.9864
 Frc consts  --      2.2950                 2.2333                 2.3241
 IR Inten    --     23.2659                26.1594                 0.0674
  Atom  AN      X      Y      Z        X      Y      Z        X      Y      Z
     1  16     0.00   0.37   0.45     0.00  -0.28   0.00     0.67   0.00   0.00
     2  16     0.12   0.28  -0.09     0.27   0.37  -0.21    -0.06   0.02  -0.10
     3  16     0.00  -0.31   0.29     0.00   0.42  -0.17    -0.56   0.00   0.00
     4  16    -0.12   0.27  -0.09    -0.27   0.36  -0.20    -0.06  -0.02   0.10
     5  26     0.00   0.15   0.21     0.00  -0.26   0.20    -0.01   0.00   0.00
     6  26     0.01  -0.13  -0.25     0.03  -0.20   0.07    -0.03  -0.03   0.32
     7  26     0.00  -0.23  -0.03     0.00   0.16   0.00     0.08   0.00   0.00
     8  26    -0.01  -0.14  -0.25    -0.03  -0.21   0.07    -0.03   0.03  -0.32
                     13                     14                     15
                      A                      A                      A
 Frequencies --    330.7127               338.1572               339.1805
 Red. masses --     37.3995                36.1037                37.6452
 Frc consts  --      2.4100                 2.4324                 2.5517
 IR Inten    --      0.1958                27.5731                27.3477
  Atom  AN      X      Y      Z        X      Y      Z        X      Y      Z
     1  16     0.00   0.33   0.44    -0.01  -0.22  -0.05     0.56   0.00   0.00
     2  16     0.18  -0.27  -0.10     0.37  -0.28  -0.10    -0.06   0.04   0.06
     3  16     0.00   0.39  -0.30    -0.01   0.07   0.57     0.66   0.00   0.01
     4  16    -0.18  -0.27  -0.10    -0.37  -0.27  -0.10    -0.07  -0.05  -0.06
     5  26     0.00  -0.17  -0.02     0.00  -0.08   0.16     0.08   0.00   0.00
     6  26     0.24   0.13  -0.01    -0.11   0.17  -0.12    -0.34   0.03  -0.03
     7  26     0.00  -0.20   0.08     0.00   0.15  -0.10    -0.02   0.00   0.00
     8  26    -0.24   0.14  -0.01     0.11   0.17  -0.12    -0.34  -0.02   0.03
                     16                     17                     18
                      A                      A                      A
 Frequencies --    349.0837               358.3865               410.2070
 Red. masses --     37.3229                37.9664                38.3709
 Frc consts  --      2.6797                 2.8731                 3.8042
 IR Inten    --     33.1915                46.8595                64.3065
  Atom  AN      X      Y      Z        X      Y      Z        X      Y      Z
     1  16     0.00  -0.43   0.56     0.00   0.42  -0.26     0.12   0.00   0.00
     2  16    -0.24   0.06   0.21    -0.12   0.09   0.08     0.58  -0.09  -0.14
     3  16     0.00   0.18   0.18     0.00   0.50   0.45     0.06   0.00   0.00
     4  16     0.24   0.06   0.21     0.12   0.09   0.08     0.58   0.08   0.14
     5  26     0.00  -0.14  -0.24     0.00  -0.28  -0.23    -0.45   0.00   0.00
     6  26     0.08  -0.01  -0.20    -0.15  -0.07  -0.04    -0.04  -0.07   0.01
     7  26     0.00   0.23  -0.02     0.00  -0.21   0.11    -0.22   0.00   0.00
     8  26    -0.08  -0.01  -0.20     0.15  -0.07  -0.04    -0.04   0.07  -0.01

 -------------------
 - Thermochemistry -
 -------------------
 Temperature   298.150 Kelvin.  Pressure   1.00000 Atm.
 Atom     1 has atomic number 16 and mass  31.97207
 Atom     2 has atomic number 16 and mass  31.97207
 Atom     3 has atomic number 16 and mass  31.97207
 Atom     4 has atomic number 16 and mass  31.97207
 Atom     5 has atomic number 26 and mass  55.93494
 Atom     6 has atomic number 26 and mass  55.93494
 Atom     7 has atomic number 26 and mass  55.93494
 Atom     8 has atomic number 26 and mass  55.93494
 Molecular mass:   351.62804 amu.
 Principal axes and moments of inertia in atomic units:
                           1         2         3
     Eigenvalues --  2695.892232930.078103310.82682
           X            1.00000  -0.00003   0.00000
           Y            0.00003   0.99999  -0.00375
           Z            0.00000   0.00375   0.99999
 This molecule is an asymmetric top.
 Rotational symmetry number  1.
 Warning -- assumption of classical behavior for rotation
           may cause significant error
 Rotational temperatures (Kelvin)      0.03213     0.02956     0.02616
 Rotational constants (GHZ):           0.66944     0.61594     0.54510
 Zero-point vibrational energy      29676.2 (Joules/Mol)
                                    7.09278 (Kcal/Mol)
 Warning -- explicit consideration of  18 degrees of freedom as
           vibrations may cause significant error
 Vibrational temperatures:    190.86   190.95   210.84   213.67   276.62
          (Kelvin)            376.49   394.40   397.43   444.54   456.20
                              458.13   469.86   475.82   486.53   488.00
                              502.25   515.64   590.20
 
 Zero-point correction=                           0.011303 (Hartree/Particle)
 Thermal correction to Energy=                    0.022465
 Thermal correction to Enthalpy=                  0.023410
 Thermal correction to Gibbs Free Energy=        -0.026724
 Sum of electronic and zero-point Energies=          -6647.515194
 Sum of electronic and thermal Energies=             -6647.504032
 Sum of electronic and thermal Enthalpies=           -6647.503088
 Sum of electronic and thermal Free Energies=        -6647.553221
 
                     E (Thermal)             CV                S
                      KCal/Mol        Cal/Mol-Kelvin    Cal/Mol-Kelvin
 Total                   14.097             36.598            105.515
 Electronic               0.000              0.000              0.000
 Translational            0.889              2.981             43.466
 Rotational               0.889              2.981             31.637
 Vibrational             12.320             30.636             30.412
 Vibration     1          0.613              1.921              2.907
 Vibration     2          0.613              1.921              2.906
 Vibration     3          0.617              1.906              2.717
 Vibration     4          0.618              1.904              2.691
 Vibration     5          0.634              1.851              2.206
 Vibration     6          0.669              1.743              1.651
 Vibration     7          0.676              1.721              1.570
 Vibration     8          0.678              1.717              1.557
 Vibration     9          0.698              1.657              1.368
 Vibration    10          0.704              1.641              1.325
 Vibration    11          0.705              1.638              1.318
 Vibration    12          0.710              1.622              1.277
 Vibration    13          0.713              1.614              1.257
 Vibration    14          0.718              1.599              1.221
 Vibration    15          0.719              1.597              1.216
 Vibration    16          0.726              1.577              1.170
 Vibration    17          0.733              1.558              1.129
 Vibration    18          0.774              1.448              0.926
                       Q            Log10(Q)             Ln(Q)
 Total Bot       0.195946D+13         12.292137         28.303691
 Total V=0       0.309864D+18         17.491172         40.274911
 Vib (Bot)       0.413001D-02         -2.384049         -5.489476
 Vib (Bot)    1  0.153577D+01          0.186327          0.429035
 Vib (Bot)    2  0.153504D+01          0.186119          0.428554
 Vib (Bot)    3  0.138505D+01          0.141466          0.325738
 Vib (Bot)    4  0.136599D+01          0.135447          0.311878
 Vib (Bot)    5  0.104013D+01          0.017087          0.039344
 Vib (Bot)    6  0.741660D+00         -0.129795         -0.298864
 Vib (Bot)    7  0.703522D+00         -0.152722         -0.351656
 Vib (Bot)    8  0.697396D+00         -0.156521         -0.360402
 Vib (Bot)    9  0.612372D+00         -0.212985         -0.490415
 Vib (Bot)   10  0.593898D+00         -0.226288         -0.521048
 Vib (Bot)   11  0.590927D+00         -0.228466         -0.526063
 Vib (Bot)   12  0.573344D+00         -0.241585         -0.556269
 Vib (Bot)   13  0.564733D+00         -0.248157         -0.571402
 Vib (Bot)   14  0.549747D+00         -0.259837         -0.598297
 Vib (Bot)   15  0.547735D+00         -0.261429         -0.601963
 Vib (Bot)   16  0.528839D+00         -0.276676         -0.637071
 Vib (Bot)   17  0.511982D+00         -0.290746         -0.669467
 Vib (Bot)   18  0.431233D+00         -0.365288         -0.841107
 Vib (V=0)       0.653109D+03          2.814986          6.481744
 Vib (V=0)    1  0.211512D+01          0.325334          0.749110
 Vib (V=0)    2  0.211442D+01          0.325190          0.748778
 Vib (V=0)    3  0.197254D+01          0.295026          0.679322
 Vib (V=0)    4  0.195462D+01          0.291063          0.670197
 Vib (V=0)    5  0.165407D+01          0.218553          0.503236
 Vib (V=0)    6  0.139446D+01          0.144406          0.332508
 Vib (V=0)    7  0.136310D+01          0.134528          0.309762
 Vib (V=0)    8  0.135811D+01          0.132936          0.306097
 Vib (V=0)    9  0.129057D+01          0.110781          0.255083
 Vib (V=0)   10  0.127635D+01          0.105969          0.244002
 Vib (V=0)   11  0.127408D+01          0.105196          0.242222
 Vib (V=0)   12  0.126074D+01          0.100625          0.231698
 Vib (V=0)   13  0.125427D+01          0.098391          0.226554
 Vib (V=0)   14  0.124312D+01          0.094512          0.217621
 Vib (V=0)   15  0.124163D+01          0.093992          0.216424
 Vib (V=0)   16  0.122779D+01          0.089122          0.205212
 Vib (V=0)   17  0.121563D+01          0.084801          0.195262
 Vib (V=0)   18  0.116027D+01          0.064561          0.148656
 Electronic      0.100000D+01          0.000000          0.000000
 Translational   0.259167D+09          8.413580         19.372985
 Rotational      0.183065D+07          6.262606         14.420182
 ***** Axes restored to original set *****
 -------------------------------------------------------------------
 Center     Atomic                   Forces (Hartrees/Bohr)
 Number     Number              X              Y              Z
 -------------------------------------------------------------------
      1       16           0.000005702    0.000016194    0.000015354
      2       16          -0.000013523    0.000001560    0.000001032
      3       16          -0.000005555   -0.000048186   -0.000016571
      4       16           0.000019014   -0.000018801   -0.000018887
      5       26          -0.000003263   -0.000016451   -0.000030049
      6       26          -0.000001572    0.000008990    0.000011677
      7       26          -0.000019322    0.000046301    0.000044861
      8       26           0.000018520    0.000010395   -0.000007418
 -------------------------------------------------------------------
 Cartesian Forces:  Max     0.000048186 RMS     0.000021268

 GradGradGradGradGradGradGradGradGradGradGradGradGradGradGradGradGradGrad
 Berny optimization.
 Search for a local minimum.
 Step number   1 out of a maximum of    2
 All quantities printed in internal units (Hartrees-Bohrs-Radians)
 Second derivative matrix not updated -- analytic derivatives used.
 ITU=  0
     Eigenvalues ---    0.02865   0.02919   0.03471   0.03529   0.06074
     Eigenvalues ---    0.10063   0.12561   0.12952   0.15235   0.15594
     Eigenvalues ---    0.15688   0.16059   0.16725   0.17551   0.17940
     Eigenvalues ---    0.18635   0.20554   0.26183
 Angle between quadratic step and forces=  44.90 degrees.
 Linear search not attempted -- first point.
 TrRot= -0.000001  0.000011  0.000006  0.000001 -0.000003  0.000001
 Variable       Old X    -DE/DX   Delta X   Delta X   Delta X     New X
                                 (Linear)    (Quad)   (Total)
    X1       -0.00175   0.00001   0.00000   0.00010   0.00010  -0.00166
    Y1       -2.35823   0.00002   0.00000   0.00055   0.00056  -2.35767
    Z1        2.82474   0.00002   0.00000  -0.00012  -0.00012   2.82462
    X2       -3.46320  -0.00001   0.00000  -0.00015  -0.00015  -3.46335
    Y2        2.12188   0.00000   0.00000   0.00002   0.00002   2.12190
    Z2        0.11680   0.00000   0.00000   0.00043   0.00043   0.11723
    X3       -0.00155  -0.00001   0.00000   0.00009   0.00011  -0.00144
    Y3       -1.77862  -0.00005   0.00000  -0.00057  -0.00056  -1.77918
    Z3       -3.13950  -0.00002   0.00000  -0.00067  -0.00066  -3.14017
    X4        3.46654   0.00002   0.00000  -0.00002  -0.00003   3.46651
    Y4        2.11712  -0.00002   0.00000  -0.00040  -0.00039   2.11674
    Z4        0.11684  -0.00002   0.00000   0.00013   0.00015   0.11699
    X5        0.00176   0.00000   0.00000  -0.00012  -0.00012   0.00164
    Y5        2.29975  -0.00002   0.00000  -0.00041  -0.00039   2.29936
    Z5       -2.09034  -0.00003   0.00000   0.00015   0.00015  -2.09019
    X6        2.99531   0.00000   0.00000  -0.00007  -0.00006   2.99525
    Y6       -2.09540   0.00001   0.00000  -0.00011  -0.00009  -2.09549
    Z6       -0.16126   0.00001   0.00000  -0.00026  -0.00024  -0.16150
    X7        0.00165  -0.00002   0.00000  -0.00019  -0.00021   0.00145
    Y7        1.82395   0.00005   0.00000   0.00071   0.00072   1.82467
    Z7        2.46238   0.00004   0.00000   0.00072   0.00072   2.46310
    X8       -2.99875   0.00002   0.00000   0.00036   0.00036  -2.99838
    Y8       -2.09116   0.00001   0.00000   0.00013   0.00013  -2.09103
    Z8       -0.16086  -0.00001   0.00000  -0.00043  -0.00043  -0.16129
         Item               Value     Threshold  Converged?
 Maximum Force            0.000048     0.000450     YES
 RMS     Force            0.000021     0.000300     YES
 Maximum Displacement     0.000723     0.001800     YES
 RMS     Displacement     0.000363     0.001200     YES
 Predicted change in Energy=-6.555625D-08
 Optimization completed.
    -- Stationary point found.
 GradGradGradGradGradGradGradGradGradGradGradGradGradGradGradGradGradGrad

 1\1\GINC-K082\Freq\RB3LYP\6-311G(d,p)\Fe4S4\Z5112331\18-Mar-2024\0\\# 
 freq b3lyp/6-311g(d,p) guess=read\\SF4\\0,1\S,-0.000928,-1.247924,1.49
 4788\S,-1.832644,1.122851,0.061808\S,-0.00082,-0.941207,-1.661354\S,1.
 834415,1.120334,0.061828\Fe,0.00093,1.216976,-1.10616\Fe,1.58505,-1.10
 8838,-0.085336\Fe,0.000875,0.965193,1.303036\Fe,-1.586869,-1.106594,-0
 .085121\\Version=ES64L-G09RevD.01\State=1-A\HF=-6647.5264975\RMSD=3.36
 4e-09\RMSF=2.127e-05\ZeroPoint=0.0113031\Thermal=0.0224653\Dipole=-0.0
 003425,-0.2774699,0.100483\DipoleDeriv=-0.5394563,-0.0000912,0.0001559
 ,-0.0002196,-0.7593194,0.1256031,0.0001269,0.1353485,-0.7325147,-0.887
 998,0.1620567,-0.0015949,0.0810599,-0.7175023,-0.0121091,-0.0286185,0.
 0451447,-0.4460888,-0.5298291,-0.0000864,-0.0000874,-0.0001419,-0.7059
 556,-0.1256637,-0.0001204,-0.127642,-0.7465646,-0.8883828,-0.1618722,0
 .0015528,-0.0807427,-0.7176059,-0.012192,0.0287266,0.0450655,-0.446174
 2,0.6117597,-0.0000802,-0.000022,0.0000535,0.6240104,-0.1196278,-0.000
 0714,0.0023732,0.3935392,0.7704778,-0.1298622,-0.0121743,-0.2106063,0.
 802393,0.0020007,-0.0307692,0.0038918,0.5884082,0.6923387,-0.0001828,0
 .0000124,-0.0000106,0.6720976,0.1400085,-0.0000554,-0.1080396,0.800926
 ,0.7710898,0.1301184,0.0121575,0.2106077,0.8018822,0.0019803,0.0307814
 ,0.0038579,0.5884689\Polar=181.0530279,-0.007261,165.9470908,0.0001052
 ,0.7708707,141.2510028\PG=C01 [X(Fe4S4)]\NImag=0\\0.09144795,0.0000075
 8,0.09247638,-0.00000499,-0.01179788,0.09836094,0.00258680,0.00084827,
 -0.00260757,0.11643924,0.00252724,-0.00281217,0.00133509,-0.01178656,0
 .07983474,-0.00613826,0.00062556,0.00213138,-0.01579511,-0.00000381,0.
 06139066,0.00166734,0.00000508,0.00000050,0.00123627,0.00286655,0.0068
 1949,0.09128766,0.00000584,0.00796467,0.00223892,0.00290987,-0.0019711
 1,-0.00175532,-0.00000948,0.08807139,0.00000017,0.00147159,-0.01324194
 ,0.00414411,-0.00238054,0.00196587,0.00002289,0.00953914,0.10112557,0.
 00258564,-0.00085306,0.00260849,0.00562927,-0.00119773,0.00096677,0.00
 123096,-0.00291248,-0.00414388,0.11649388,-0.00253609,-0.00280228,0.00
 133318,0.00120171,0.00656830,0.00025300,-0.00286829,-0.00195707,-0.002
 37158,0.01174291,0.07975041,0.00613501,0.00061424,0.00213057,-0.000967
 87,0.00025481,0.00599603,-0.00681737,-0.00174256,0.00196716,0.01575484
 ,-0.00002473,0.06140238,-0.00483181,0.00000170,0.00000051,-0.07055533,
 -0.00403391,0.03677341,-0.00728710,-0.00004995,-0.00000840,-0.07054621
 ,0.00411610,-0.03676819,0.14576740,0.00000083,-0.00171728,-0.00154664,
 0.00234593,-0.00704057,-0.00075799,-0.00005332,-0.07430939,-0.01147177
 ,-0.00225601,-0.00704439,-0.00070273,-0.00001686,0.10863965,0.00000134
 ,0.00040134,-0.00143076,0.01905836,0.00443466,-0.03493462,-0.00001810,
 -0.02555316,-0.01072100,-0.01904439,0.00445176,-0.03493270,-0.00000024
 ,0.00385559,0.13054313,-0.04253768,-0.00139199,0.02899053,-0.00057465,
 -0.00221672,-0.00013391,-0.04179075,0.00360069,-0.02842220,-0.00719727
 ,-0.00908661,-0.00112723,-0.00180493,0.00620406,-0.00329034,0.10994309
 ,-0.00628464,-0.00713881,0.00431995,-0.00321694,-0.00198499,-0.0004483
 1,0.00140470,-0.00721691,0.00187922,-0.00586167,-0.06882933,-0.0034920
 9,0.00994356,-0.00856495,0.00387899,-0.00346001,0.09539436,0.03598527,
 -0.00036120,-0.04147890,0.00076413,-0.00011977,-0.00183156,-0.03632367
 ,0.00631284,-0.04000561,-0.00126358,-0.00515512,-0.00714279,-0.0050609
 5,0.00645930,0.00005659,0.00044543,-0.00262413,0.08853718,-0.00838889,
 -0.00005776,-0.00000085,-0.04758659,0.00483657,-0.02361499,-0.00457062
 ,0.00000101,0.00000153,-0.04763089,-0.00478220,0.02365688,0.01108772,-
 0.00000695,-0.00000213,0.00046017,0.00989281,0.00484582,0.09619552,-0.
 00005966,-0.07882936,-0.00024596,0.00193833,-0.00371242,0.00557640,-0.
 00000002,-0.00336093,0.00150097,-0.00187687,-0.00369061,0.00554269,-0.
 00000799,-0.00142074,0.00465963,0.00390252,-0.00448863,-0.00471377,0.0
 0001674,0.09997465,0.00000731,0.00935484,-0.00500424,-0.00585086,0.001
 63338,-0.02757393,0.00000488,0.00470545,-0.00108998,0.00588657,0.00163
 174,-0.02759184,-0.00000658,-0.00229478,-0.04863539,0.00414495,-0.0037
 1600,-0.00164909,-0.00003419,-0.00761066,0.11319194,-0.04252935,0.0014
 4019,-0.02898661,-0.00717501,0.00900456,0.00112259,-0.04177376,-0.0035
 4551,0.02840578,-0.00056539,0.00221248,0.00013394,-0.00182975,-0.00621
 767,0.00329551,-0.01649796,-0.00241781,0.00060756,0.00043359,-0.003913
 05,-0.00415207,0.10993763,0.00633890,-0.00714116,0.00436334,0.00575939
 ,-0.06888178,-0.00348954,-0.00134521,-0.00722065,0.00183297,0.00321491
 ,-0.00199502,-0.00044963,-0.00995264,-0.00854233,0.00387118,0.00244806
 ,0.00282925,0.00020186,-0.00990023,-0.00447196,-0.00370397,0.00343681,
 0.09542364,-0.03598583,-0.00030850,-0.04146705,0.00125480,-0.00515381,
 -0.00714383,0.03631138,0.00625468,-0.04000007,-0.00076482,-0.00011825,
 -0.00182882,0.00507044,0.00645902,0.00005475,-0.00060723,0.00020237,0.
 00351417,-0.00485206,-0.00470931,-0.00164747,-0.00042669,-0.00262621,0
 .08851832\\-0.00000570,-0.00001619,-0.00001535,0.00001352,-0.00000156,
 -0.00000103,0.00000556,0.00004819,0.00001657,-0.00001901,0.00001880,0.
 00001889,0.00000326,0.00001645,0.00003005,0.00000157,-0.00000899,-0.00
 001168,0.00001932,-0.00004630,-0.00004486,-0.00001852,-0.00001039,0.00
 000742\\\@


 IF AT FIRST YOU DON'T SUCCEED, TRY, TRY AGAIN.
 THEN GIVE UP;
 THERE'S NO USE BEING A DAMN FOOL ABOUT IT.

                                 -- W. C. FIELDS
 Job cpu time:       0 days  0 hours 18 minutes 14.7 seconds.
 File lengths (MBytes):  RWF=    227 Int=      0 D2E=      0 Chk=      8 Scr=      2
 Normal termination of Gaussian 09 at Mon Mar 18 18:59:49 2024.
