 Entering Gaussian System, Link 0=g09
 Initial command:
 /apps/z_install_tree/linux-rocky8-ivybridge/gcc-12.2.0/gaussian-09-D.01-wczn3gur5lpur3omlkzwa2l5ecyxp5ef/g09/l1.exe "/srv/scratch/z5112331/Gaussian/Cl4_reference/TS1p/Gau-3562430.inp" -scrdir="/srv/scratch/z5112331/Gaussian/Cl4_reference/TS1p/"
 Entering Link 1 = /apps/z_install_tree/linux-rocky8-ivybridge/gcc-12.2.0/gaussian-09-D.01-wczn3gur5lpur3omlkzwa2l5ecyxp5ef/g09/l1.exe PID=   3562433.
  
 Copyright (c) 1988,1990,1992,1993,1995,1998,2003,2009,2013,
            Gaussian, Inc.  All Rights Reserved.
  
 This is part of the Gaussian(R) 09 program.  It is based on
 the Gaussian(R) 03 system (copyright 2003, Gaussian, Inc.),
 the Gaussian(R) 98 system (copyright 1998, Gaussian, Inc.),
 the Gaussian(R) 94 system (copyright 1995, Gaussian, Inc.),
 the Gaussian 92(TM) system (copyright 1992, Gaussian, Inc.),
 the Gaussian 90(TM) system (copyright 1990, Gaussian, Inc.),
 the Gaussian 88(TM) system (copyright 1988, Gaussian, Inc.),
 the Gaussian 86(TM) system (copyright 1986, Carnegie Mellon
 University), and the Gaussian 82(TM) system (copyright 1983,
 Carnegie Mellon University). Gaussian is a federally registered
 trademark of Gaussian, Inc.
  
 This software contains proprietary and confidential information,
 including trade secrets, belonging to Gaussian, Inc.
  
 This software is provided under written license and may be
 used, copied, transmitted, or stored only in accord with that
 written license.
  
 The following legend is applicable only to US Government
 contracts under FAR:
  
                    RESTRICTED RIGHTS LEGEND
  
 Use, reproduction and disclosure by the US Government is
 subject to restrictions as set forth in subparagraphs (a)
 and (c) of the Commercial Computer Software - Restricted
 Rights clause in FAR 52.227-19.
  
 Gaussian, Inc.
 340 Quinnipiac St., Bldg. 40, Wallingford CT 06492
  
  
 ---------------------------------------------------------------
 Warning -- This program may not be used in any manner that
 competes with the business of Gaussian, Inc. or will provide
 assistance to any competitor of Gaussian, Inc.  The licensee
 of this program is prohibited from giving any competitor of
 Gaussian, Inc. access to this program.  By using this program,
 the user acknowledges that Gaussian, Inc. is engaged in the
 business of creating and licensing software in the field of
 computational chemistry and represents and warrants to the
 licensee that it is not a competitor of Gaussian, Inc. and that
 it will not use this program in any manner prohibited above.
 ---------------------------------------------------------------
  

 Cite this work as:
 Gaussian 09, Revision D.01,
 M. J. Frisch, G. W. Trucks, H. B. Schlegel, G. E. Scuseria, 
 M. A. Robb, J. R. Cheeseman, G. Scalmani, V. Barone, B. Mennucci, 
 G. A. Petersson, H. Nakatsuji, M. Caricato, X. Li, H. P. Hratchian, 
 A. F. Izmaylov, J. Bloino, G. Zheng, J. L. Sonnenberg, M. Hada, 
 M. Ehara, K. Toyota, R. Fukuda, J. Hasegawa, M. Ishida, T. Nakajima, 
 Y. Honda, O. Kitao, H. Nakai, T. Vreven, J. A. Montgomery, Jr., 
 J. E. Peralta, F. Ogliaro, M. Bearpark, J. J. Heyd, E. Brothers, 
 K. N. Kudin, V. N. Staroverov, T. Keith, R. Kobayashi, J. Normand, 
 K. Raghavachari, A. Rendell, J. C. Burant, S. S. Iyengar, J. Tomasi, 
 M. Cossi, N. Rega, J. M. Millam, M. Klene, J. E. Knox, J. B. Cross, 
 V. Bakken, C. Adamo, J. Jaramillo, R. Gomperts, R. E. Stratmann, 
 O. Yazyev, A. J. Austin, R. Cammi, C. Pomelli, J. W. Ochterski, 
 R. L. Martin, K. Morokuma, V. G. Zakrzewski, G. A. Voth, 
 P. Salvador, J. J. Dannenberg, S. Dapprich, A. D. Daniels, 
 O. Farkas, J. B. Foresman, J. V. Ortiz, J. Cioslowski, 
 and D. J. Fox, Gaussian, Inc., Wallingford CT, 2013.
 
 ******************************************
 Gaussian 09:  ES64L-G09RevD.01 24-Apr-2013
                29-Aug-2024 
 ******************************************
 %chk=TS1P_out_freq11_lsmd.chk
 %mem=200GB
 %nprocshared=20
 Will use up to   20 processors via shared memory.
 ----------------------------------------------------------------------
 #p b3lyp/gen nosymm scrf=(smd,read) guess=read em=gd3 int=ultrafine ps
 eudo=read scf=xqc scfcyc=96
 ----------------------------------------------------------------------
 1/38=1,40=2/1;
 2/12=2,15=1,17=6,18=5,40=1/2;
 3/5=7,11=2,16=1,17=8,25=1,30=1,70=32203,72=1,74=-5,75=-5,116=-2,124=31/1,2,3;
 4/5=1/1;
 5/5=2,7=96,8=3,13=1,38=6/2,8;
 6/7=2,8=2,9=2,10=2,28=1/1;
 99/5=1,9=1/99;
 Leave Link    1 at Thu Aug 29 14:49:00 2024, MaxMem= 26843545600 cpu:         3.2
 (Enter /apps/z_install_tree/linux-rocky8-ivybridge/gcc-12.2.0/gaussian-09-D.01-wczn3gur5lpur3omlkzwa2l5ecyxp5ef/g09/l101.exe)
 -------------------
 TS1P_out_freq11_smd
 -------------------
 Symbolic Z-matrix:
 Charge =  1 Multiplicity = 1
 C                     7.59334  -4.28737   4.03705 
 C                     6.62928  -3.24903   4.64769 
 C                     5.82926  -2.41758   3.66739 
 C                     6.11338  -1.06085   3.46447 
 C                     4.73864  -2.97652   2.98195 
 C                     5.32307  -0.27443   2.6219 
 C                     3.94333  -2.19744   2.14171 
 C                     4.22993  -0.84097   1.9654 
 C                    -3.53525   7.10814   1.46741 
 C                    -2.06595   6.74345   1.20293 
 O                    -1.80045   6.61693  -0.21731 
 C                    -1.67526   5.41055   1.82574 
 C                    -6.65034   2.90901   5.45634 
 C                    -5.27432   2.3165    5.80923 
 C                    -4.50475   1.82232   4.60524 
 C                    -4.90715   0.63802   3.96639 
 C                    -3.37815   2.48434   4.10965 
 C                    -4.18375   0.09884   2.90854 
 C                    -2.64098   1.96602   3.04101 
 C                    -3.03319   0.75692   2.47208 
 O                    -2.30239   0.13133   1.47016 
 C                    -3.89572  -5.56258   4.00844 
 C                    -2.74549  -4.5511    4.00204 
 C                    -2.97518  -3.37797   3.05374 
 O                    -3.97774  -3.30183   2.33227 
 N                    -1.98939  -2.4573    3.00262 
 C                    -7.76811   1.21483  -2.04538 
 C                    -8.12671   2.1375   -0.85788 
 C                    -7.2208    3.36688  -0.64634 
 C                    -6.01893   3.12664   0.28246 
 N                    -4.96102   2.28538  -0.27342 
 C                    -3.76078   2.71258  -0.6804 
 N                    -3.50528   4.01633  -0.88601 
 N                    -2.78189   1.8226   -0.87228 
 C                     10.00601   5.69577   0.47764 
 C                     8.66879   5.22118   1.06577 
 C                     7.80733   4.41606   0.13485 
 C                     8.07864   4.04814  -1.15838 
 C                     6.51484   3.85371   0.45107 
 N                     7.03058   3.2962   -1.67124 
 C                     6.05989   3.15488  -0.7023 
 C                     5.70305   3.86486   1.59952 
 C                     4.83758   2.47711  -0.72964 
 C                     4.48515   3.1906    1.57862 
 C                     4.06072   2.49913   0.42429 
 Co                    1.10841  -1.72139  -1.91552 
 C                    -1.44868  -2.88251  -2.22585 
 C                    -2.94024  -2.39401  -2.18632 
 C                    -2.87099  -1.10725  -3.09012 
 C                    -1.41472  -0.67986  -2.94437 
 C                    -0.89985   0.6121   -3.33993 
 C                     0.44988   0.89163  -3.25077 
 C                     1.1934    2.20508  -3.65013 
 C                     2.58221   1.60528  -4.02231 
 C                     2.63795   0.39963  -3.12365 
 C                     3.83113  -0.2174   -2.79633 
 C                     3.98377  -1.41694  -2.11389 
 C                     5.35469  -2.02314  -1.87989 
 C                     4.9876   -3.37803  -1.19088 
 C                     3.46545  -3.32515  -1.06628 
 C                     2.71562  -4.30373  -0.44334 
 C                     1.27797  -4.29584  -0.50479 
 C                     0.31709  -5.33506   0.11664 
 C                    -1.00526  -4.99716  -0.64472 
 C                    -0.83824  -3.50609  -0.95035 
 C                    -1.12865  -3.77613  -3.44315 
 N                    -0.68397  -1.6158   -2.39144 
 N                     1.40293  -0.03058  -2.79944 
 N                     2.96391  -2.17266  -1.66334 
 N                     0.61761  -3.32655  -1.08671 
 C                    -3.94858  -3.43519  -2.67143 
 C                    -3.29951  -1.99699  -0.72239 
 C                    -4.69234  -1.43789  -0.52393 
 O                    -5.07885  -0.4012   -1.103 
 N                    -5.50884  -2.12295   0.29724 
 C                    -3.33695  -1.28236  -4.54919 
 C                    -1.88841   1.59876  -3.93787 
 C                     0.65344   3.06142  -4.80719 
 C                     1.4584    3.10474  -2.39377 
 C                     0.32507   3.9655   -1.86067 
 O                    -0.85458   3.57647  -1.81112 
 N                     0.65458   5.18183  -1.38547 
 C                     2.72448   1.14517  -5.48716 
 C                     6.21588  -1.14017  -0.95428 
 C                     6.07351  -2.16067  -3.2348 
 C                     5.48443  -4.63184  -1.93463 
 C                     3.41592  -5.39189   0.34927 
 C                     0.19092  -5.05034   1.62986 
 C                     0.64356  -6.81883  -0.12641 
 C                    -2.28721  -5.41571   0.07331 
 Cl                    1.05906   2.3184    3.86223 
 C                     0.79266   1.49766   2.34247 
 C                     0.80686   0.17171   2.15348 
 Cl                    0.44516   2.58422   1.01469 
 Cl                    0.81692  -0.6355    0.36574 
 H                     7.20101  -2.58065   5.30187 
 H                     5.92561  -3.78111   5.30137 
 H                     6.95294  -0.61064   3.98904 
 H                     4.49629  -4.02645   3.13404 
 H                     5.55251   0.7774    2.47829 
 H                     3.09075  -2.6339    1.63363 
 H                     3.60757  -0.23585   1.31545 
 H                     8.41002  -3.80967   3.48811 
 H                    -1.41627   7.53023   1.6145 
 H                    -0.64049   5.15984   1.58321 
 H                    -2.32082   4.60754   1.46004 
 H                    -1.76573   5.45958   2.9148 
 H                    -1.99589   7.46463  -0.63892 
 H                    -4.17597   6.5124    0.80786 
 H                    -4.6791    3.05262   6.36055 
 H                    -5.41912   1.47019   6.49186 
 H                    -3.04887   3.40837   4.57783 
 H                    -5.78222   0.10744   4.33383 
 H                    -1.75997   2.48366   2.68223 
 H                    -4.45803  -0.84938   2.45958 
 H                    -1.38908   0.46389   1.45925 
 H                    -7.13094   2.32201   4.6656 
 H                    -2.54366  -4.15903   5.00645 
 H                    -1.81304  -5.02884   3.67933 
 H                    -2.06438  -1.66276   2.37619 
 H                    -1.1837   -2.50349   3.6061 
 H                    -4.36964  -5.59449   3.02453 
 H                    -9.16109   2.45984  -1.0069 
 H                    -8.13248   1.54155   0.06616 
 H                    -7.81347   4.1642   -0.18128 
 H                    -6.8727    3.76058  -1.61064 
 H                    -5.56895   4.07635   0.58743 
 H                    -6.3598    2.64524   1.20678 
 H                    -5.12752   1.28139  -0.36948 
 H                    -1.88827   2.14269  -1.24049 
 H                    -2.82623   0.94073  -0.38191 
 H                    -4.25744   4.66494  -1.04442 
 H                    -2.55693   4.29638  -1.13424 
 H                    -6.7202    0.9143   -2.01975 
 H                     8.10026   6.09365   1.4181 
 H                     8.86636   4.6234    1.96695 
 H                     8.94489   4.26283  -1.76703 
 H                     6.02782   4.39006   2.49338 
 H                     3.85353   3.18364   2.46245 
 H                     4.51105   1.92826  -1.60419 
 H                     3.11969   1.96015   0.43882 
 H                     9.85484   6.38004  -0.36347 
 H                    -3.51397  -0.34289  -2.64977 
 H                     3.38918   2.31339  -3.80122 
 H                     4.73422   0.26344  -3.15235 
 H                     5.41821  -3.38242  -0.18234 
 H                    -0.94979  -5.54399  -1.59209 
 H                    -1.13472  -2.90809  -0.08325 
 H                    -1.35427  -3.25984  -4.37574 
 H                    -1.68991  -4.71271  -3.42351 
 H                    -0.06058  -4.00574  -3.44345 
 H                    -4.96383  -3.02456  -2.65945 
 H                    -3.7513   -3.77064  -3.68935 
 H                    -3.94876  -4.31518  -2.02528 
 H                    -2.59506  -1.24047  -0.37048 
 H                    -3.18915  -2.85744  -0.06499 
 H                    -6.41087  -1.70874   0.49566 
 H                    -3.24141  -0.34514  -5.0992 
 H                    -2.76542  -2.03764  -5.09197 
 H                    -1.67637   2.61656  -3.62816 
 H                    -1.88152   1.56516  -5.03321 
 H                    -2.90515   1.38384  -3.61041 
 H                     1.44394   3.73966  -5.1461 
 H                    -0.1968    3.67605  -4.51163 
 H                     0.34653   2.44978  -5.65688 
 H                     2.30563   3.75955  -2.62388 
 H                     1.78539   2.47297  -1.56069 
 H                    -0.07451   5.74135  -0.94063 
 H                     2.71847   1.98791  -6.18303 
 H                     1.91504   0.46068  -5.76035 
 H                     5.74128  -0.9936    0.01591 
 H                     6.39241  -0.15315  -1.39358 
 H                     7.1891   -1.61633  -0.79158 
 H                     5.48111  -2.71557  -3.96711 
 H                     6.27873  -1.17318  -3.65697 
 H                     7.03746  -2.66398  -3.11863 
 H                     6.57027  -4.60089  -2.05755 
 H                     5.24877  -5.54456  -1.38891 
 H                     4.40996  -5.07458   0.66599 
 H                     2.8679   -5.6248    1.26334 
 H                     3.52237  -6.33042  -0.20512 
 H                    -0.19829  -4.04634   1.81892 
 H                    -0.48242  -5.77846   2.09197 
 H                     1.1564   -5.13108   2.13412 
 H                    -0.24606  -7.42373   0.07571 
 H                     1.43848  -7.1944    0.51979 
 H                    -3.15571  -5.33958  -0.58394 
 H                    -2.49166  -4.80339   0.95158 
 Cl                    1.05117  -0.93379   3.45982 
 H                     5.03073  -4.71369  -2.92597 
 H                     0.93842  -6.99295  -1.16618 
 H                    -2.23024  -6.45921   0.39854 
 H                    -4.39122  -1.57025  -4.57724 
 H                     3.66975   0.60978  -5.61157 
 H                    -7.94682   1.75424  -2.98188 
 H                    -4.6662   -5.2989    4.73686 
 H                    -3.52513  -6.56301   4.23121 
 H                    -7.31441   2.8739    6.32012 
 H                    -6.57215   3.94104   5.10175 
 H                    -3.74725   8.16809   1.30098 
 H                    -3.79114   6.84052   2.49269 
 H                     7.07046  -4.96594   3.3551 
 H                     8.0028   -4.87046   4.86213 
 H                     10.60638   4.84993   0.12629 
 H                     10.57346   6.21367   1.25079 
 H                     7.01206   2.87582  -2.58516 
 H                     1.61202   5.49639  -1.3564 
 H                    -5.1155   -2.78415   0.96498 
 C                    -8.70037   0.02215  -1.99799 
 O                    -9.91084   0.12841  -2.15531 
 N                    -8.09754  -1.15268  -1.65212 
 H                    -7.09013  -1.20088  -1.70974 
 C                    -8.88754  -2.36131  -1.5568 
 H                    -8.32092  -3.12348  -1.01503 
 H                    -9.81238  -2.14316  -1.01917 
 H                    -9.16286  -2.75951  -2.54142 
 
 NAtoms=    216 NQM=      216 NQMF=       0 NMMI=      0 NMMIF=      0
                NMic=       0 NMicF=      0.
                    Isotopes and Nuclear Properties:
 (Nuclear quadrupole moments (NQMom) in fm**2, nuclear magnetic moments (NMagM)
  in nuclear magnetons)

  Atom         1           2           3           4           5           6           7           8           9          10
 IAtWgt=          12          12          12          12          12          12          12          12          12          12
 AtmWgt=  12.0000000  12.0000000  12.0000000  12.0000000  12.0000000  12.0000000  12.0000000  12.0000000  12.0000000  12.0000000
 NucSpn=           0           0           0           0           0           0           0           0           0           0
 AtZEff=   0.0000000   0.0000000   0.0000000   0.0000000   0.0000000   0.0000000   0.0000000   0.0000000   0.0000000   0.0000000
 NQMom=    0.0000000   0.0000000   0.0000000   0.0000000   0.0000000   0.0000000   0.0000000   0.0000000   0.0000000   0.0000000
 NMagM=    0.0000000   0.0000000   0.0000000   0.0000000   0.0000000   0.0000000   0.0000000   0.0000000   0.0000000   0.0000000
 AtZNuc=   6.0000000   6.0000000   6.0000000   6.0000000   6.0000000   6.0000000   6.0000000   6.0000000   6.0000000   6.0000000

  Atom        11          12          13          14          15          16          17          18          19          20
 IAtWgt=          16          12          12          12          12          12          12          12          12          12
 AtmWgt=  15.9949146  12.0000000  12.0000000  12.0000000  12.0000000  12.0000000  12.0000000  12.0000000  12.0000000  12.0000000
 NucSpn=           0           0           0           0           0           0           0           0           0           0
 AtZEff=   0.0000000   0.0000000   0.0000000   0.0000000   0.0000000   0.0000000   0.0000000   0.0000000   0.0000000   0.0000000
 NQMom=    0.0000000   0.0000000   0.0000000   0.0000000   0.0000000   0.0000000   0.0000000   0.0000000   0.0000000   0.0000000
 NMagM=    0.0000000   0.0000000   0.0000000   0.0000000   0.0000000   0.0000000   0.0000000   0.0000000   0.0000000   0.0000000
 AtZNuc=   8.0000000   6.0000000   6.0000000   6.0000000   6.0000000   6.0000000   6.0000000   6.0000000   6.0000000   6.0000000

  Atom        21          22          23          24          25          26          27          28          29          30
 IAtWgt=          16          12          12          12          16          14          12          12          12          12
 AtmWgt=  15.9949146  12.0000000  12.0000000  12.0000000  15.9949146  14.0030740  12.0000000  12.0000000  12.0000000  12.0000000
 NucSpn=           0           0           0           0           0           2           0           0           0           0
 AtZEff=   0.0000000   0.0000000   0.0000000   0.0000000   0.0000000   0.0000000   0.0000000   0.0000000   0.0000000   0.0000000
 NQMom=    0.0000000   0.0000000   0.0000000   0.0000000   0.0000000   2.0440000   0.0000000   0.0000000   0.0000000   0.0000000
 NMagM=    0.0000000   0.0000000   0.0000000   0.0000000   0.0000000   0.4037610   0.0000000   0.0000000   0.0000000   0.0000000
 AtZNuc=   8.0000000   6.0000000   6.0000000   6.0000000   8.0000000   7.0000000   6.0000000   6.0000000   6.0000000   6.0000000

  Atom        31          32          33          34          35          36          37          38          39          40
 IAtWgt=          14          12          14          14          12          12          12          12          12          14
 AtmWgt=  14.0030740  12.0000000  14.0030740  14.0030740  12.0000000  12.0000000  12.0000000  12.0000000  12.0000000  14.0030740
 NucSpn=           2           0           2           2           0           0           0           0           0           2
 AtZEff=   0.0000000   0.0000000   0.0000000   0.0000000   0.0000000   0.0000000   0.0000000   0.0000000   0.0000000   0.0000000
 NQMom=    2.0440000   0.0000000   2.0440000   2.0440000   0.0000000   0.0000000   0.0000000   0.0000000   0.0000000   2.0440000
 NMagM=    0.4037610   0.0000000   0.4037610   0.4037610   0.0000000   0.0000000   0.0000000   0.0000000   0.0000000   0.4037610
 AtZNuc=   7.0000000   6.0000000   7.0000000   7.0000000   6.0000000   6.0000000   6.0000000   6.0000000   6.0000000   7.0000000

  Atom        41          42          43          44          45          46          47          48          49          50
 IAtWgt=          12          12          12          12          12          59          12          12          12          12
 AtmWgt=  12.0000000  12.0000000  12.0000000  12.0000000  12.0000000  58.9331978  12.0000000  12.0000000  12.0000000  12.0000000
 NucSpn=           0           0           0           0           0           7           0           0           0           0
 AtZEff=   0.0000000   0.0000000   0.0000000   0.0000000   0.0000000   0.0000000   0.0000000   0.0000000   0.0000000   0.0000000
 NQMom=    0.0000000   0.0000000   0.0000000   0.0000000   0.0000000  42.0000000   0.0000000   0.0000000   0.0000000   0.0000000
 NMagM=    0.0000000   0.0000000   0.0000000   0.0000000   0.0000000   4.6270000   0.0000000   0.0000000   0.0000000   0.0000000
 AtZNuc=   6.0000000   6.0000000   6.0000000   6.0000000   6.0000000  27.0000000   6.0000000   6.0000000   6.0000000   6.0000000

  Atom        51          52          53          54          55          56          57          58          59          60
 IAtWgt=          12          12          12          12          12          12          12          12          12          12
 AtmWgt=  12.0000000  12.0000000  12.0000000  12.0000000  12.0000000  12.0000000  12.0000000  12.0000000  12.0000000  12.0000000
 NucSpn=           0           0           0           0           0           0           0           0           0           0
 AtZEff=   0.0000000   0.0000000   0.0000000   0.0000000   0.0000000   0.0000000   0.0000000   0.0000000   0.0000000   0.0000000
 NQMom=    0.0000000   0.0000000   0.0000000   0.0000000   0.0000000   0.0000000   0.0000000   0.0000000   0.0000000   0.0000000
 NMagM=    0.0000000   0.0000000   0.0000000   0.0000000   0.0000000   0.0000000   0.0000000   0.0000000   0.0000000   0.0000000
 AtZNuc=   6.0000000   6.0000000   6.0000000   6.0000000   6.0000000   6.0000000   6.0000000   6.0000000   6.0000000   6.0000000

  Atom        61          62          63          64          65          66          67          68          69          70
 IAtWgt=          12          12          12          12          12          12          14          14          14          14
 AtmWgt=  12.0000000  12.0000000  12.0000000  12.0000000  12.0000000  12.0000000  14.0030740  14.0030740  14.0030740  14.0030740
 NucSpn=           0           0           0           0           0           0           2           2           2           2
 AtZEff=   0.0000000   0.0000000   0.0000000   0.0000000   0.0000000   0.0000000   0.0000000   0.0000000   0.0000000   0.0000000
 NQMom=    0.0000000   0.0000000   0.0000000   0.0000000   0.0000000   0.0000000   2.0440000   2.0440000   2.0440000   2.0440000
 NMagM=    0.0000000   0.0000000   0.0000000   0.0000000   0.0000000   0.0000000   0.4037610   0.4037610   0.4037610   0.4037610
 AtZNuc=   6.0000000   6.0000000   6.0000000   6.0000000   6.0000000   6.0000000   7.0000000   7.0000000   7.0000000   7.0000000

  Atom        71          72          73          74          75          76          77          78          79          80
 IAtWgt=          12          12          12          16          14          12          12          12          12          12
 AtmWgt=  12.0000000  12.0000000  12.0000000  15.9949146  14.0030740  12.0000000  12.0000000  12.0000000  12.0000000  12.0000000
 NucSpn=           0           0           0           0           2           0           0           0           0           0
 AtZEff=   0.0000000   0.0000000   0.0000000   0.0000000   0.0000000   0.0000000   0.0000000   0.0000000   0.0000000   0.0000000
 NQMom=    0.0000000   0.0000000   0.0000000   0.0000000   2.0440000   0.0000000   0.0000000   0.0000000   0.0000000   0.0000000
 NMagM=    0.0000000   0.0000000   0.0000000   0.0000000   0.4037610   0.0000000   0.0000000   0.0000000   0.0000000   0.0000000
 AtZNuc=   6.0000000   6.0000000   6.0000000   8.0000000   7.0000000   6.0000000   6.0000000   6.0000000   6.0000000   6.0000000

  Atom        81          82          83          84          85          86          87          88          89          90
 IAtWgt=          16          14          12          12          12          12          12          12          12          12
 AtmWgt=  15.9949146  14.0030740  12.0000000  12.0000000  12.0000000  12.0000000  12.0000000  12.0000000  12.0000000  12.0000000
 NucSpn=           0           2           0           0           0           0           0           0           0           0
 AtZEff=   0.0000000   0.0000000   0.0000000   0.0000000   0.0000000   0.0000000   0.0000000   0.0000000   0.0000000   0.0000000
 NQMom=    0.0000000   2.0440000   0.0000000   0.0000000   0.0000000   0.0000000   0.0000000   0.0000000   0.0000000   0.0000000
 NMagM=    0.0000000   0.4037610   0.0000000   0.0000000   0.0000000   0.0000000   0.0000000   0.0000000   0.0000000   0.0000000
 AtZNuc=   8.0000000   7.0000000   6.0000000   6.0000000   6.0000000   6.0000000   6.0000000   6.0000000   6.0000000   6.0000000

  Atom        91          92          93          94          95          96          97          98          99         100
 IAtWgt=          35          12          12          35          35           1           1           1           1           1
 AtmWgt=  34.9688527  12.0000000  12.0000000  34.9688527  34.9688527   1.0078250   1.0078250   1.0078250   1.0078250   1.0078250
 NucSpn=           3           0           0           3           3           1           1           1           1           1
 AtZEff=   0.0000000   0.0000000   0.0000000   0.0000000   0.0000000   0.0000000   0.0000000   0.0000000   0.0000000   0.0000000
 NQMom=   -8.1650000   0.0000000   0.0000000  -8.1650000  -8.1650000   0.0000000   0.0000000   0.0000000   0.0000000   0.0000000
 NMagM=    0.8218740   0.0000000   0.0000000   0.8218740   0.8218740   2.7928460   2.7928460   2.7928460   2.7928460   2.7928460
 AtZNuc=  17.0000000   6.0000000   6.0000000  17.0000000  17.0000000   1.0000000   1.0000000   1.0000000   1.0000000   1.0000000

  Atom       101         102         103         104         105         106         107         108         109         110
 IAtWgt=           1           1           1           1           1           1           1           1           1           1
 AtmWgt=   1.0078250   1.0078250   1.0078250   1.0078250   1.0078250   1.0078250   1.0078250   1.0078250   1.0078250   1.0078250
 NucSpn=           1           1           1           1           1           1           1           1           1           1
 AtZEff=   0.0000000   0.0000000   0.0000000   0.0000000   0.0000000   0.0000000   0.0000000   0.0000000   0.0000000   0.0000000
 NQMom=    0.0000000   0.0000000   0.0000000   0.0000000   0.0000000   0.0000000   0.0000000   0.0000000   0.0000000   0.0000000
 NMagM=    2.7928460   2.7928460   2.7928460   2.7928460   2.7928460   2.7928460   2.7928460   2.7928460   2.7928460   2.7928460
 AtZNuc=   1.0000000   1.0000000   1.0000000   1.0000000   1.0000000   1.0000000   1.0000000   1.0000000   1.0000000   1.0000000

  Atom       111         112         113         114         115         116         117         118         119         120
 IAtWgt=           1           1           1           1           1           1           1           1           1           1
 AtmWgt=   1.0078250   1.0078250   1.0078250   1.0078250   1.0078250   1.0078250   1.0078250   1.0078250   1.0078250   1.0078250
 NucSpn=           1           1           1           1           1           1           1           1           1           1
 AtZEff=   0.0000000   0.0000000   0.0000000   0.0000000   0.0000000   0.0000000   0.0000000   0.0000000   0.0000000   0.0000000
 NQMom=    0.0000000   0.0000000   0.0000000   0.0000000   0.0000000   0.0000000   0.0000000   0.0000000   0.0000000   0.0000000
 NMagM=    2.7928460   2.7928460   2.7928460   2.7928460   2.7928460   2.7928460   2.7928460   2.7928460   2.7928460   2.7928460
 AtZNuc=   1.0000000   1.0000000   1.0000000   1.0000000   1.0000000   1.0000000   1.0000000   1.0000000   1.0000000   1.0000000

  Atom       121         122         123         124         125         126         127         128         129         130
 IAtWgt=           1           1           1           1           1           1           1           1           1           1
 AtmWgt=   1.0078250   1.0078250   1.0078250   1.0078250   1.0078250   1.0078250   1.0078250   1.0078250   1.0078250   1.0078250
 NucSpn=           1           1           1           1           1           1           1           1           1           1
 AtZEff=   0.0000000   0.0000000   0.0000000   0.0000000   0.0000000   0.0000000   0.0000000   0.0000000   0.0000000   0.0000000
 NQMom=    0.0000000   0.0000000   0.0000000   0.0000000   0.0000000   0.0000000   0.0000000   0.0000000   0.0000000   0.0000000
 NMagM=    2.7928460   2.7928460   2.7928460   2.7928460   2.7928460   2.7928460   2.7928460   2.7928460   2.7928460   2.7928460
 AtZNuc=   1.0000000   1.0000000   1.0000000   1.0000000   1.0000000   1.0000000   1.0000000   1.0000000   1.0000000   1.0000000

  Atom       131         132         133         134         135         136         137         138         139         140
 IAtWgt=           1           1           1           1           1           1           1           1           1           1
 AtmWgt=   1.0078250   1.0078250   1.0078250   1.0078250   1.0078250   1.0078250   1.0078250   1.0078250   1.0078250   1.0078250
 NucSpn=           1           1           1           1           1           1           1           1           1           1
 AtZEff=   0.0000000   0.0000000   0.0000000   0.0000000   0.0000000   0.0000000   0.0000000   0.0000000   0.0000000   0.0000000
 NQMom=    0.0000000   0.0000000   0.0000000   0.0000000   0.0000000   0.0000000   0.0000000   0.0000000   0.0000000   0.0000000
 NMagM=    2.7928460   2.7928460   2.7928460   2.7928460   2.7928460   2.7928460   2.7928460   2.7928460   2.7928460   2.7928460
 AtZNuc=   1.0000000   1.0000000   1.0000000   1.0000000   1.0000000   1.0000000   1.0000000   1.0000000   1.0000000   1.0000000

  Atom       141         142         143         144         145         146         147         148         149         150
 IAtWgt=           1           1           1           1           1           1           1           1           1           1
 AtmWgt=   1.0078250   1.0078250   1.0078250   1.0078250   1.0078250   1.0078250   1.0078250   1.0078250   1.0078250   1.0078250
 NucSpn=           1           1           1           1           1           1           1           1           1           1
 AtZEff=   0.0000000   0.0000000   0.0000000   0.0000000   0.0000000   0.0000000   0.0000000   0.0000000   0.0000000   0.0000000
 NQMom=    0.0000000   0.0000000   0.0000000   0.0000000   0.0000000   0.0000000   0.0000000   0.0000000   0.0000000   0.0000000
 NMagM=    2.7928460   2.7928460   2.7928460   2.7928460   2.7928460   2.7928460   2.7928460   2.7928460   2.7928460   2.7928460
 AtZNuc=   1.0000000   1.0000000   1.0000000   1.0000000   1.0000000   1.0000000   1.0000000   1.0000000   1.0000000   1.0000000

  Atom       151         152         153         154         155         156         157         158         159         160
 IAtWgt=           1           1           1           1           1           1           1           1           1           1
 AtmWgt=   1.0078250   1.0078250   1.0078250   1.0078250   1.0078250   1.0078250   1.0078250   1.0078250   1.0078250   1.0078250
 NucSpn=           1           1           1           1           1           1           1           1           1           1
 AtZEff=   0.0000000   0.0000000   0.0000000   0.0000000   0.0000000   0.0000000   0.0000000   0.0000000   0.0000000   0.0000000
 NQMom=    0.0000000   0.0000000   0.0000000   0.0000000   0.0000000   0.0000000   0.0000000   0.0000000   0.0000000   0.0000000
 NMagM=    2.7928460   2.7928460   2.7928460   2.7928460   2.7928460   2.7928460   2.7928460   2.7928460   2.7928460   2.7928460
 AtZNuc=   1.0000000   1.0000000   1.0000000   1.0000000   1.0000000   1.0000000   1.0000000   1.0000000   1.0000000   1.0000000

  Atom       161         162         163         164         165         166         167         168         169         170
 IAtWgt=           1           1           1           1           1           1           1           1           1           1
 AtmWgt=   1.0078250   1.0078250   1.0078250   1.0078250   1.0078250   1.0078250   1.0078250   1.0078250   1.0078250   1.0078250
 NucSpn=           1           1           1           1           1           1           1           1           1           1
 AtZEff=   0.0000000   0.0000000   0.0000000   0.0000000   0.0000000   0.0000000   0.0000000   0.0000000   0.0000000   0.0000000
 NQMom=    0.0000000   0.0000000   0.0000000   0.0000000   0.0000000   0.0000000   0.0000000   0.0000000   0.0000000   0.0000000
 NMagM=    2.7928460   2.7928460   2.7928460   2.7928460   2.7928460   2.7928460   2.7928460   2.7928460   2.7928460   2.7928460
 AtZNuc=   1.0000000   1.0000000   1.0000000   1.0000000   1.0000000   1.0000000   1.0000000   1.0000000   1.0000000   1.0000000

  Atom       171         172         173         174         175         176         177         178         179         180
 IAtWgt=           1           1           1           1           1           1           1           1           1           1
 AtmWgt=   1.0078250   1.0078250   1.0078250   1.0078250   1.0078250   1.0078250   1.0078250   1.0078250   1.0078250   1.0078250
 NucSpn=           1           1           1           1           1           1           1           1           1           1
 AtZEff=   0.0000000   0.0000000   0.0000000   0.0000000   0.0000000   0.0000000   0.0000000   0.0000000   0.0000000   0.0000000
 NQMom=    0.0000000   0.0000000   0.0000000   0.0000000   0.0000000   0.0000000   0.0000000   0.0000000   0.0000000   0.0000000
 NMagM=    2.7928460   2.7928460   2.7928460   2.7928460   2.7928460   2.7928460   2.7928460   2.7928460   2.7928460   2.7928460
 AtZNuc=   1.0000000   1.0000000   1.0000000   1.0000000   1.0000000   1.0000000   1.0000000   1.0000000   1.0000000   1.0000000

  Atom       181         182         183         184         185         186         187         188         189         190
 IAtWgt=           1           1           1           1           1           1           1           1          35           1
 AtmWgt=   1.0078250   1.0078250   1.0078250   1.0078250   1.0078250   1.0078250   1.0078250   1.0078250  34.9688527   1.0078250
 NucSpn=           1           1           1           1           1           1           1           1           3           1
 AtZEff=   0.0000000   0.0000000   0.0000000   0.0000000   0.0000000   0.0000000   0.0000000   0.0000000   0.0000000   0.0000000
 NQMom=    0.0000000   0.0000000   0.0000000   0.0000000   0.0000000   0.0000000   0.0000000   0.0000000  -8.1650000   0.0000000
 NMagM=    2.7928460   2.7928460   2.7928460   2.7928460   2.7928460   2.7928460   2.7928460   2.7928460   0.8218740   2.7928460
 AtZNuc=   1.0000000   1.0000000   1.0000000   1.0000000   1.0000000   1.0000000   1.0000000   1.0000000  17.0000000   1.0000000

  Atom       191         192         193         194         195         196         197         198         199         200
 IAtWgt=           1           1           1           1           1           1           1           1           1           1
 AtmWgt=   1.0078250   1.0078250   1.0078250   1.0078250   1.0078250   1.0078250   1.0078250   1.0078250   1.0078250   1.0078250
 NucSpn=           1           1           1           1           1           1           1           1           1           1
 AtZEff=   0.0000000   0.0000000   0.0000000   0.0000000   0.0000000   0.0000000   0.0000000   0.0000000   0.0000000   0.0000000
 NQMom=    0.0000000   0.0000000   0.0000000   0.0000000   0.0000000   0.0000000   0.0000000   0.0000000   0.0000000   0.0000000
 NMagM=    2.7928460   2.7928460   2.7928460   2.7928460   2.7928460   2.7928460   2.7928460   2.7928460   2.7928460   2.7928460
 AtZNuc=   1.0000000   1.0000000   1.0000000   1.0000000   1.0000000   1.0000000   1.0000000   1.0000000   1.0000000   1.0000000

  Atom       201         202         203         204         205         206         207         208         209         210
 IAtWgt=           1           1           1           1           1           1           1           1          12          16
 AtmWgt=   1.0078250   1.0078250   1.0078250   1.0078250   1.0078250   1.0078250   1.0078250   1.0078250  12.0000000  15.9949146
 NucSpn=           1           1           1           1           1           1           1           1           0           0
 AtZEff=   0.0000000   0.0000000   0.0000000   0.0000000   0.0000000   0.0000000   0.0000000   0.0000000   0.0000000   0.0000000
 NQMom=    0.0000000   0.0000000   0.0000000   0.0000000   0.0000000   0.0000000   0.0000000   0.0000000   0.0000000   0.0000000
 NMagM=    2.7928460   2.7928460   2.7928460   2.7928460   2.7928460   2.7928460   2.7928460   2.7928460   0.0000000   0.0000000
 AtZNuc=   1.0000000   1.0000000   1.0000000   1.0000000   1.0000000   1.0000000   1.0000000   1.0000000   6.0000000   8.0000000

  Atom       211         212         213         214         215         216
 IAtWgt=          14           1          12           1           1           1
 AtmWgt=  14.0030740   1.0078250  12.0000000   1.0078250   1.0078250   1.0078250
 NucSpn=           2           1           0           1           1           1
 AtZEff=   0.0000000   0.0000000   0.0000000   0.0000000   0.0000000   0.0000000
 NQMom=    2.0440000   0.0000000   0.0000000   0.0000000   0.0000000   0.0000000
 NMagM=    0.4037610   2.7928460   0.0000000   2.7928460   2.7928460   2.7928460
 AtZNuc=   7.0000000   1.0000000   6.0000000   1.0000000   1.0000000   1.0000000
 Leave Link  101 at Thu Aug 29 14:49:01 2024, MaxMem= 26843545600 cpu:         2.5
 (Enter /apps/z_install_tree/linux-rocky8-ivybridge/gcc-12.2.0/gaussian-09-D.01-wczn3gur5lpur3omlkzwa2l5ecyxp5ef/g09/l202.exe)
 Symmetry turned off by external request.
 Stoichiometry    C77H116Cl4CoN12O6(1+)
 Framework group  C1[X(C77H116Cl4CoN12O6)]
 Deg. of freedom   642
 Full point group                 C1      NOp   1
                          Input orientation:                          
 ---------------------------------------------------------------------
 Center     Atomic      Atomic             Coordinates (Angstroms)
 Number     Number       Type             X           Y           Z
 ---------------------------------------------------------------------
      1          6           0        7.593343   -4.287372    4.037047
      2          6           0        6.629277   -3.249027    4.647687
      3          6           0        5.829260   -2.417575    3.667390
      4          6           0        6.113380   -1.060846    3.464467
      5          6           0        4.738635   -2.976521    2.981954
      6          6           0        5.323067   -0.274428    2.621895
      7          6           0        3.943332   -2.197440    2.141714
      8          6           0        4.229928   -0.840972    1.965398
      9          6           0       -3.535245    7.108137    1.467409
     10          6           0       -2.065952    6.743447    1.202927
     11          8           0       -1.800447    6.616930   -0.217306
     12          6           0       -1.675257    5.410552    1.825743
     13          6           0       -6.650344    2.909008    5.456342
     14          6           0       -5.274324    2.316500    5.809234
     15          6           0       -4.504746    1.822319    4.605242
     16          6           0       -4.907151    0.638024    3.966385
     17          6           0       -3.378148    2.484337    4.109651
     18          6           0       -4.183755    0.098844    2.908543
     19          6           0       -2.640981    1.966020    3.041011
     20          6           0       -3.033192    0.756921    2.472079
     21          8           0       -2.302389    0.131329    1.470156
     22          6           0       -3.895718   -5.562584    4.008436
     23          6           0       -2.745493   -4.551102    4.002040
     24          6           0       -2.975179   -3.377968    3.053739
     25          8           0       -3.977736   -3.301833    2.332267
     26          7           0       -1.989390   -2.457295    3.002623
     27          6           0       -7.768105    1.214834   -2.045382
     28          6           0       -8.126706    2.137504   -0.857878
     29          6           0       -7.220796    3.366877   -0.646340
     30          6           0       -6.018934    3.126644    0.282463
     31          7           0       -4.961021    2.285378   -0.273418
     32          6           0       -3.760777    2.712584   -0.680403
     33          7           0       -3.505278    4.016331   -0.886007
     34          7           0       -2.781890    1.822603   -0.872280
     35          6           0       10.006015    5.695768    0.477637
     36          6           0        8.668792    5.221175    1.065769
     37          6           0        7.807325    4.416063    0.134847
     38          6           0        8.078639    4.048144   -1.158379
     39          6           0        6.514841    3.853713    0.451065
     40          7           0        7.030583    3.296197   -1.671239
     41          6           0        6.059885    3.154881   -0.702304
     42          6           0        5.703050    3.864855    1.599515
     43          6           0        4.837578    2.477111   -0.729639
     44          6           0        4.485152    3.190602    1.578621
     45          6           0        4.060719    2.499132    0.424294
     46         27           0        1.108409   -1.721394   -1.915523
     47          6           0       -1.448679   -2.882512   -2.225853
     48          6           0       -2.940243   -2.394006   -2.186323
     49          6           0       -2.870992   -1.107246   -3.090119
     50          6           0       -1.414716   -0.679862   -2.944368
     51          6           0       -0.899848    0.612095   -3.339929
     52          6           0        0.449875    0.891630   -3.250766
     53          6           0        1.193399    2.205083   -3.650131
     54          6           0        2.582211    1.605277   -4.022315
     55          6           0        2.637954    0.399630   -3.123650
     56          6           0        3.831127   -0.217400   -2.796330
     57          6           0        3.983766   -1.416935   -2.113890
     58          6           0        5.354694   -2.023144   -1.879890
     59          6           0        4.987601   -3.378025   -1.190881
     60          6           0        3.465446   -3.325150   -1.066283
     61          6           0        2.715621   -4.303726   -0.443339
     62          6           0        1.277969   -4.295844   -0.504793
     63          6           0        0.317086   -5.335057    0.116642
     64          6           0       -1.005263   -4.997164   -0.644723
     65          6           0       -0.838244   -3.506087   -0.950351
     66          6           0       -1.128652   -3.776131   -3.443148
     67          7           0       -0.683965   -1.615798   -2.391439
     68          7           0        1.402934   -0.030582   -2.799440
     69          7           0        2.963911   -2.172655   -1.663338
     70          7           0        0.617614   -3.326549   -1.086709
     71          6           0       -3.948579   -3.435192   -2.671425
     72          6           0       -3.299514   -1.996993   -0.722392
     73          6           0       -4.692341   -1.437885   -0.523933
     74          8           0       -5.078847   -0.401195   -1.103004
     75          7           0       -5.508835   -2.122953    0.297238
     76          6           0       -3.336945   -1.282358   -4.549189
     77          6           0       -1.888412    1.598761   -3.937866
     78          6           0        0.653444    3.061418   -4.807194
     79          6           0        1.458399    3.104735   -2.393765
     80          6           0        0.325069    3.965501   -1.860668
     81          8           0       -0.854582    3.576472   -1.811115
     82          7           0        0.654583    5.181833   -1.385467
     83          6           0        2.724475    1.145172   -5.487163
     84          6           0        6.215875   -1.140170   -0.954279
     85          6           0        6.073507   -2.160669   -3.234796
     86          6           0        5.484426   -4.631842   -1.934628
     87          6           0        3.415917   -5.391893    0.349270
     88          6           0        0.190919   -5.050342    1.629856
     89          6           0        0.643558   -6.818829   -0.126409
     90          6           0       -2.287207   -5.415710    0.073307
     91         17           0        1.059061    2.318401    3.862227
     92          6           0        0.792660    1.497659    2.342474
     93          6           0        0.806859    0.171707    2.153482
     94         17           0        0.445157    2.584222    1.014687
     95         17           0        0.816917   -0.635504    0.365737
     96          1           0        7.201010   -2.580651    5.301869
     97          1           0        5.925608   -3.781111    5.301371
     98          1           0        6.952937   -0.610644    3.989044
     99          1           0        4.496294   -4.026454    3.134040
    100          1           0        5.552506    0.777400    2.478293
    101          1           0        3.090750   -2.633897    1.633633
    102          1           0        3.607569   -0.235846    1.315451
    103          1           0        8.410023   -3.809665    3.488114
    104          1           0       -1.416266    7.530233    1.614501
    105          1           0       -0.640489    5.159845    1.583205
    106          1           0       -2.320824    4.607538    1.460040
    107          1           0       -1.765730    5.459575    2.914797
    108          1           0       -1.995886    7.464631   -0.638920
    109          1           0       -4.175974    6.512398    0.807860
    110          1           0       -4.679098    3.052624    6.360549
    111          1           0       -5.419122    1.470190    6.491859
    112          1           0       -3.048870    3.408370    4.577828
    113          1           0       -5.782220    0.107436    4.333828
    114          1           0       -1.759967    2.483658    2.682226
    115          1           0       -4.458025   -0.849382    2.459582
    116          1           0       -1.389076    0.463891    1.459245
    117          1           0       -7.130943    2.322011    4.665602
    118          1           0       -2.543659   -4.159033    5.006451
    119          1           0       -1.813036   -5.028843    3.679325
    120          1           0       -2.064377   -1.662762    2.376185
    121          1           0       -1.183700   -2.503491    3.606097
    122          1           0       -4.369644   -5.594487    3.024527
    123          1           0       -9.161094    2.459839   -1.006898
    124          1           0       -8.132482    1.541553    0.066156
    125          1           0       -7.813473    4.164203   -0.181279
    126          1           0       -6.872695    3.760577   -1.610637
    127          1           0       -5.568946    4.076351    0.587430
    128          1           0       -6.359803    2.645238    1.206783
    129          1           0       -5.127521    1.281389   -0.369477
    130          1           0       -1.888270    2.142689   -1.240485
    131          1           0       -2.826226    0.940734   -0.381909
    132          1           0       -4.257436    4.664935   -1.044415
    133          1           0       -2.556932    4.296377   -1.134239
    134          1           0       -6.720197    0.914303   -2.019752
    135          1           0        8.100260    6.093654    1.418100
    136          1           0        8.866363    4.623404    1.966950
    137          1           0        8.944892    4.262834   -1.767026
    138          1           0        6.027818    4.390062    2.493379
    139          1           0        3.853531    3.183641    2.462446
    140          1           0        4.511049    1.928259   -1.604188
    141          1           0        3.119694    1.960154    0.438822
    142          1           0        9.854842    6.380041   -0.363465
    143          1           0       -3.513966   -0.342885   -2.649771
    144          1           0        3.389179    2.313392   -3.801219
    145          1           0        4.734223    0.263436   -3.152351
    146          1           0        5.418213   -3.382417   -0.182340
    147          1           0       -0.949786   -5.543987   -1.592086
    148          1           0       -1.134721   -2.908090   -0.083251
    149          1           0       -1.354265   -3.259839   -4.375738
    150          1           0       -1.689913   -4.712705   -3.423511
    151          1           0       -0.060583   -4.005738   -3.443446
    152          1           0       -4.963828   -3.024558   -2.659451
    153          1           0       -3.751299   -3.770635   -3.689350
    154          1           0       -3.948758   -4.315182   -2.025284
    155          1           0       -2.595061   -1.240468   -0.370483
    156          1           0       -3.189147   -2.857442   -0.064986
    157          1           0       -6.410875   -1.708735    0.495662
    158          1           0       -3.241412   -0.345136   -5.099202
    159          1           0       -2.765417   -2.037645   -5.091965
    160          1           0       -1.676370    2.616555   -3.628163
    161          1           0       -1.881524    1.565160   -5.033211
    162          1           0       -2.905151    1.383842   -3.610408
    163          1           0        1.443940    3.739663   -5.146100
    164          1           0       -0.196799    3.676053   -4.511632
    165          1           0        0.346528    2.449777   -5.656879
    166          1           0        2.305632    3.759549   -2.623875
    167          1           0        1.785394    2.472968   -1.560689
    168          1           0       -0.074511    5.741351   -0.940630
    169          1           0        2.718469    1.987907   -6.183029
    170          1           0        1.915043    0.460682   -5.760352
    171          1           0        5.741283   -0.993595    0.015909
    172          1           0        6.392406   -0.153149   -1.393581
    173          1           0        7.189099   -1.616328   -0.791580
    174          1           0        5.481115   -2.715573   -3.967112
    175          1           0        6.278729   -1.173179   -3.656968
    176          1           0        7.037463   -2.663979   -3.118626
    177          1           0        6.570274   -4.600889   -2.057546
    178          1           0        5.248773   -5.544562   -1.388908
    179          1           0        4.409959   -5.074579    0.665985
    180          1           0        2.867902   -5.624800    1.263335
    181          1           0        3.522374   -6.330424   -0.205116
    182          1           0       -0.198292   -4.046340    1.818916
    183          1           0       -0.482423   -5.778463    2.091971
    184          1           0        1.156402   -5.131084    2.134119
    185          1           0       -0.246063   -7.423730    0.075712
    186          1           0        1.438476   -7.194405    0.519789
    187          1           0       -3.155711   -5.339580   -0.583938
    188          1           0       -2.491662   -4.803393    0.951583
    189         17           0        1.051166   -0.933792    3.459818
    190          1           0        5.030735   -4.713693   -2.925965
    191          1           0        0.938418   -6.992951   -1.166183
    192          1           0       -2.230241   -6.459210    0.398535
    193          1           0       -4.391221   -1.570250   -4.577239
    194          1           0        3.669750    0.609781   -5.611573
    195          1           0       -7.946824    1.754236   -2.981882
    196          1           0       -4.666202   -5.298903    4.736858
    197          1           0       -3.525128   -6.563011    4.231214
    198          1           0       -7.314411    2.873904    6.320121
    199          1           0       -6.572148    3.941043    5.101753
    200          1           0       -3.747248    8.168087    1.300982
    201          1           0       -3.791142    6.840523    2.492688
    202          1           0        7.070457   -4.965944    3.355102
    203          1           0        8.002801   -4.870457    4.862132
    204          1           0       10.606377    4.849930    0.126288
    205          1           0       10.573464    6.213666    1.250786
    206          1           0        7.012057    2.875823   -2.585163
    207          1           0        1.612015    5.496393   -1.356401
    208          1           0       -5.115498   -2.784154    0.964978
    209          6           0       -8.700367    0.022152   -1.997985
    210          8           0       -9.910835    0.128412   -2.155312
    211          7           0       -8.097540   -1.152677   -1.652121
    212          1           0       -7.090128   -1.200880   -1.709741
    213          6           0       -8.887544   -2.361313   -1.556799
    214          1           0       -8.320924   -3.123477   -1.015029
    215          1           0       -9.812381   -2.143155   -1.019173
    216          1           0       -9.162863   -2.759507   -2.541419
 ---------------------------------------------------------------------
 Rotational constants (GHZ):      0.0203733      0.0132409      0.0115869
 Leave Link  202 at Thu Aug 29 14:49:01 2024, MaxMem= 26843545600 cpu:         0.1
 (Enter /apps/z_install_tree/linux-rocky8-ivybridge/gcc-12.2.0/gaussian-09-D.01-wczn3gur5lpur3omlkzwa2l5ecyxp5ef/g09/l301.exe)
 General basis read from cards:  (5D, 7F)
 Centers:       1      2      3      4      5      6      7      8      9     10
 Centers:      12     13     14     15     16     17     18     19     20     22
 Centers:      23     24     27     28     29     30     32     35     36     37
 Centers:      38     39     41     42     43     44     45     47     48     49
 Centers:      50     51     52     53     54     55     56     57     58     59
 Centers:      60     61     62     63     64     65     66     71     72     73
 Centers:      76     77     78     79     80     83     84     85     86     87
 Centers:      88     89     90     92     93    209    213     96     97     98
 Centers:      99    100    101    102    103    104    105    106    107    108
 Centers:     109    110    111    112    113    114    115    116    117    118
 Centers:     119    120    121    122    123    124    125    126    127    128
 Centers:     129    130    131    132    133    134    135    136    137    138
 Centers:     139    140    141    142    143    144    145    146    147    148
 Centers:     149    150    151    152    153    154    155    156    157    158
 Centers:     159    160    161    162    163    164    165    166    167    168
 Centers:     169    170    171    172    173    174    175    176    177    178
 Centers:     179    180    181    182    183    184    185    186    187    188
 Centers:     190    191    192    193    194    195    196    197    198    199
 Centers:     200    201    202    203    204    205    206    207    208    212
 Centers:     214    215    216     11     21     25     74     81    210     26
 Centers:      31     33     34     40     67     68     69     70     75     82
 Centers:     211     91     94     95    189
 6-31G(d,p)
 ****
 Centers:      46
 S 1 1.00
     Exponent=  7.1760000000D+00 Coefficients=  1.0000000000D+00
 S 1 1.00
     Exponent=  2.0090000000D+00 Coefficients=  1.0000000000D+00
 S 1 1.00
     Exponent=  8.0550000000D-01 Coefficients=  1.0000000000D+00
 S 1 1.00
     Exponent=  1.0700000000D-01 Coefficients=  1.0000000000D+00
 S 1 1.00
     Exponent=  3.7500000000D-02 Coefficients=  1.0000000000D+00
 P 1 1.00
     Exponent=  2.1390000000D+01 Coefficients=  1.0000000000D+00
 P 1 1.00
     Exponent=  2.6500000000D+00 Coefficients=  1.0000000000D+00
 P 1 1.00
     Exponent=  8.6190000000D-01 Coefficients=  1.0000000000D+00
 P 1 1.00
     Exponent=  8.0000000000D-02 Coefficients=  1.0000000000D+00
 P 1 1.00
     Exponent=  2.3000000000D-02 Coefficients=  1.0000000000D+00
 D 1 1.00
     Exponent=  3.9250000000D+01 Coefficients=  1.0000000000D+00
 D 1 1.00
     Exponent=  1.0780000000D+01 Coefficients=  1.0000000000D+00
 D 1 1.00
     Exponent=  3.4960000000D+00 Coefficients=  1.0000000000D+00
 D 1 1.00
     Exponent=  1.0660000000D+00 Coefficients=  1.0000000000D+00
 D 1 1.00
     Exponent=  2.6060000000D-01 Coefficients=  1.0000000000D+00
 F 1 1.00
     Exponent=  2.7800000000D+00 Coefficients=  1.0000000000D+00
 ****
 ======================================================================================================
                                       Pseudopotential Parameters
 ======================================================================================================
  Center     Atomic      Valence      Angular      Power
  Number     Number     Electrons     Momentum     of R      Exponent        Coefficient   SO-Coeffient
 ======================================================================================================
    1          6
                                   No pseudopotential on this center.
    2          6
                                   No pseudopotential on this center.
    3          6
                                   No pseudopotential on this center.
    4          6
                                   No pseudopotential on this center.
    5          6
                                   No pseudopotential on this center.
    6          6
                                   No pseudopotential on this center.
    7          6
                                   No pseudopotential on this center.
    8          6
                                   No pseudopotential on this center.
    9          6
                                   No pseudopotential on this center.
   10          6
                                   No pseudopotential on this center.
   11          8
                                   No pseudopotential on this center.
   12          6
                                   No pseudopotential on this center.
   13          6
                                   No pseudopotential on this center.
   14          6
                                   No pseudopotential on this center.
   15          6
                                   No pseudopotential on this center.
   16          6
                                   No pseudopotential on this center.
   17          6
                                   No pseudopotential on this center.
   18          6
                                   No pseudopotential on this center.
   19          6
                                   No pseudopotential on this center.
   20          6
                                   No pseudopotential on this center.
   21          8
                                   No pseudopotential on this center.
   22          6
                                   No pseudopotential on this center.
   23          6
                                   No pseudopotential on this center.
   24          6
                                   No pseudopotential on this center.
   25          8
                                   No pseudopotential on this center.
   26          7
                                   No pseudopotential on this center.
   27          6
                                   No pseudopotential on this center.
   28          6
                                   No pseudopotential on this center.
   29          6
                                   No pseudopotential on this center.
   30          6
                                   No pseudopotential on this center.
   31          7
                                   No pseudopotential on this center.
   32          6
                                   No pseudopotential on this center.
   33          7
                                   No pseudopotential on this center.
   34          7
                                   No pseudopotential on this center.
   35          6
                                   No pseudopotential on this center.
   36          6
                                   No pseudopotential on this center.
   37          6
                                   No pseudopotential on this center.
   38          6
                                   No pseudopotential on this center.
   39          6
                                   No pseudopotential on this center.
   40          7
                                   No pseudopotential on this center.
   41          6
                                   No pseudopotential on this center.
   42          6
                                   No pseudopotential on this center.
   43          6
                                   No pseudopotential on this center.
   44          6
                                   No pseudopotential on this center.
   45          6
                                   No pseudopotential on this center.
   46         27           17
                                      D and up 
                                                     1      434.1076104      -10.00000000    0.00000000
                                                     2       78.8402758      -66.72402760    0.00000000
                                                     2       19.6037749      -11.71922430    0.00000000
                                      S - D
                                                     0      151.2307582        3.00000000    0.00000000
                                                     1      169.6790026       20.15531100    0.00000000
                                                     2       64.9909423      413.37622440    0.00000000
                                                     2       12.5076287      133.87277050    0.00000000
                                      P - D
                                                     0       92.7319924        5.00000000    0.00000000
                                                     1      121.1910183        6.18923530    0.00000000
                                                     2       48.6265909      326.32159190    0.00000000
                                                     2       11.9966971       73.87889700    0.00000000
   47          6
                                   No pseudopotential on this center.
   48          6
                                   No pseudopotential on this center.
   49          6
                                   No pseudopotential on this center.
   50          6
                                   No pseudopotential on this center.
   51          6
                                   No pseudopotential on this center.
   52          6
                                   No pseudopotential on this center.
   53          6
                                   No pseudopotential on this center.
   54          6
                                   No pseudopotential on this center.
   55          6
                                   No pseudopotential on this center.
   56          6
                                   No pseudopotential on this center.
   57          6
                                   No pseudopotential on this center.
   58          6
                                   No pseudopotential on this center.
   59          6
                                   No pseudopotential on this center.
   60          6
                                   No pseudopotential on this center.
   61          6
                                   No pseudopotential on this center.
   62          6
                                   No pseudopotential on this center.
   63          6
                                   No pseudopotential on this center.
   64          6
                                   No pseudopotential on this center.
   65          6
                                   No pseudopotential on this center.
   66          6
                                   No pseudopotential on this center.
   67          7
                                   No pseudopotential on this center.
   68          7
                                   No pseudopotential on this center.
   69          7
                                   No pseudopotential on this center.
   70          7
                                   No pseudopotential on this center.
   71          6
                                   No pseudopotential on this center.
   72          6
                                   No pseudopotential on this center.
   73          6
                                   No pseudopotential on this center.
   74          8
                                   No pseudopotential on this center.
   75          7
                                   No pseudopotential on this center.
   76          6
                                   No pseudopotential on this center.
   77          6
                                   No pseudopotential on this center.
   78          6
                                   No pseudopotential on this center.
   79          6
                                   No pseudopotential on this center.
   80          6
                                   No pseudopotential on this center.
   81          8
                                   No pseudopotential on this center.
   82          7
                                   No pseudopotential on this center.
   83          6
                                   No pseudopotential on this center.
   84          6
                                   No pseudopotential on this center.
   85          6
                                   No pseudopotential on this center.
   86          6
                                   No pseudopotential on this center.
   87          6
                                   No pseudopotential on this center.
   88          6
                                   No pseudopotential on this center.
   89          6
                                   No pseudopotential on this center.
   90          6
                                   No pseudopotential on this center.
   91         17
                                   No pseudopotential on this center.
   92          6
                                   No pseudopotential on this center.
   93          6
                                   No pseudopotential on this center.
   94         17
                                   No pseudopotential on this center.
   95         17
                                   No pseudopotential on this center.
   96          1
                                   No pseudopotential on this center.
   97          1
                                   No pseudopotential on this center.
   98          1
                                   No pseudopotential on this center.
   99          1
                                   No pseudopotential on this center.
  100          1
                                   No pseudopotential on this center.
  101          1
                                   No pseudopotential on this center.
  102          1
                                   No pseudopotential on this center.
  103          1
                                   No pseudopotential on this center.
  104          1
                                   No pseudopotential on this center.
  105          1
                                   No pseudopotential on this center.
  106          1
                                   No pseudopotential on this center.
  107          1
                                   No pseudopotential on this center.
  108          1
                                   No pseudopotential on this center.
  109          1
                                   No pseudopotential on this center.
  110          1
                                   No pseudopotential on this center.
  111          1
                                   No pseudopotential on this center.
  112          1
                                   No pseudopotential on this center.
  113          1
                                   No pseudopotential on this center.
  114          1
                                   No pseudopotential on this center.
  115          1
                                   No pseudopotential on this center.
  116          1
                                   No pseudopotential on this center.
  117          1
                                   No pseudopotential on this center.
  118          1
                                   No pseudopotential on this center.
  119          1
                                   No pseudopotential on this center.
  120          1
                                   No pseudopotential on this center.
  121          1
                                   No pseudopotential on this center.
  122          1
                                   No pseudopotential on this center.
  123          1
                                   No pseudopotential on this center.
  124          1
                                   No pseudopotential on this center.
  125          1
                                   No pseudopotential on this center.
  126          1
                                   No pseudopotential on this center.
  127          1
                                   No pseudopotential on this center.
  128          1
                                   No pseudopotential on this center.
  129          1
                                   No pseudopotential on this center.
  130          1
                                   No pseudopotential on this center.
  131          1
                                   No pseudopotential on this center.
  132          1
                                   No pseudopotential on this center.
  133          1
                                   No pseudopotential on this center.
  134          1
                                   No pseudopotential on this center.
  135          1
                                   No pseudopotential on this center.
  136          1
                                   No pseudopotential on this center.
  137          1
                                   No pseudopotential on this center.
  138          1
                                   No pseudopotential on this center.
  139          1
                                   No pseudopotential on this center.
  140          1
                                   No pseudopotential on this center.
  141          1
                                   No pseudopotential on this center.
  142          1
                                   No pseudopotential on this center.
  143          1
                                   No pseudopotential on this center.
  144          1
                                   No pseudopotential on this center.
  145          1
                                   No pseudopotential on this center.
  146          1
                                   No pseudopotential on this center.
  147          1
                                   No pseudopotential on this center.
  148          1
                                   No pseudopotential on this center.
  149          1
                                   No pseudopotential on this center.
  150          1
                                   No pseudopotential on this center.
  151          1
                                   No pseudopotential on this center.
  152          1
                                   No pseudopotential on this center.
  153          1
                                   No pseudopotential on this center.
  154          1
                                   No pseudopotential on this center.
  155          1
                                   No pseudopotential on this center.
  156          1
                                   No pseudopotential on this center.
  157          1
                                   No pseudopotential on this center.
  158          1
                                   No pseudopotential on this center.
  159          1
                                   No pseudopotential on this center.
  160          1
                                   No pseudopotential on this center.
  161          1
                                   No pseudopotential on this center.
  162          1
                                   No pseudopotential on this center.
  163          1
                                   No pseudopotential on this center.
  164          1
                                   No pseudopotential on this center.
  165          1
                                   No pseudopotential on this center.
  166          1
                                   No pseudopotential on this center.
  167          1
                                   No pseudopotential on this center.
  168          1
                                   No pseudopotential on this center.
  169          1
                                   No pseudopotential on this center.
  170          1
                                   No pseudopotential on this center.
  171          1
                                   No pseudopotential on this center.
  172          1
                                   No pseudopotential on this center.
  173          1
                                   No pseudopotential on this center.
  174          1
                                   No pseudopotential on this center.
  175          1
                                   No pseudopotential on this center.
  176          1
                                   No pseudopotential on this center.
  177          1
                                   No pseudopotential on this center.
  178          1
                                   No pseudopotential on this center.
  179          1
                                   No pseudopotential on this center.
  180          1
                                   No pseudopotential on this center.
  181          1
                                   No pseudopotential on this center.
  182          1
                                   No pseudopotential on this center.
  183          1
                                   No pseudopotential on this center.
  184          1
                                   No pseudopotential on this center.
  185          1
                                   No pseudopotential on this center.
  186          1
                                   No pseudopotential on this center.
  187          1
                                   No pseudopotential on this center.
  188          1
                                   No pseudopotential on this center.
  189         17
                                   No pseudopotential on this center.
  190          1
                                   No pseudopotential on this center.
  191          1
                                   No pseudopotential on this center.
  192          1
                                   No pseudopotential on this center.
  193          1
                                   No pseudopotential on this center.
  194          1
                                   No pseudopotential on this center.
  195          1
                                   No pseudopotential on this center.
  196          1
                                   No pseudopotential on this center.
  197          1
                                   No pseudopotential on this center.
  198          1
                                   No pseudopotential on this center.
  199          1
                                   No pseudopotential on this center.
  200          1
                                   No pseudopotential on this center.
  201          1
                                   No pseudopotential on this center.
  202          1
                                   No pseudopotential on this center.
  203          1
                                   No pseudopotential on this center.
  204          1
                                   No pseudopotential on this center.
  205          1
                                   No pseudopotential on this center.
  206          1
                                   No pseudopotential on this center.
  207          1
                                   No pseudopotential on this center.
  208          1
                                   No pseudopotential on this center.
  209          6
                                   No pseudopotential on this center.
  210          8
                                   No pseudopotential on this center.
  211          7
                                   No pseudopotential on this center.
  212          1
                                   No pseudopotential on this center.
  213          6
                                   No pseudopotential on this center.
  214          1
                                   No pseudopotential on this center.
  215          1
                                   No pseudopotential on this center.
  216          1
                                   No pseudopotential on this center.
 ======================================================================================================
 Ernie: Thresh=  0.10000D-02 Tol=  0.10000D-05 Strict=F.
  2034 basis functions,  3740 primitive gaussians,  2141 cartesian basis functions
   397 alpha electrons      397 beta electrons
       nuclear repulsion energy     26155.1647334757 Hartrees.
 IExCor=  402 DFT=T Ex+Corr=B3LYP ExCW=0 ScaHFX=  0.200000
 ScaDFX=  0.800000  0.720000  1.000000  0.810000 ScalE2=  1.000000  1.000000
 IRadAn=      5 IRanWt=     -1 IRanGd=            0 ICorTp=0 IEmpDi=131
 NAtoms=  216 NActive=  216 NUniq=  216 SFac= 1.00D+00 NAtFMM=   60 NAOKFM=T Big=T
 Integral buffers will be    131072 words long.
 Raffenetti 2 integral format.
 Two-electron integral symmetry is turned off.
 R6Disp:  Grimme-D3 Dispersion energy=       -0.3862812979 Hartrees.
 Nuclear repulsion after empirical dispersion term =    26154.7784521778 Hartrees.
 Using the following non-standard input for PCM:
 eps=4.0
 --- end of non-standard input.
 ------------------------------------------------------------------------------
 Polarizable Continuum Model (PCM)
 =================================
 Model                : PCM (using non-symmetric T matrix).
 Atomic radii         : SMD-Coulomb.
 Polarization charges : Total charges.
 Charge compensation  : None.
 Solution method      : On-the-fly selection.
[...]
 Alpha virt. eigenvalues --    5.53819   5.53937   5.54706   5.55549   5.58289
 Alpha virt. eigenvalues --    5.59454   5.60249   5.60996   5.62290   5.63720
 Alpha virt. eigenvalues --    5.65295   5.65557   5.65971   5.66806   5.70323
 Alpha virt. eigenvalues --    5.70879   5.74494   5.76814   5.77972   5.81731
 Alpha virt. eigenvalues --    5.87302   5.89007   5.89136   5.89329   5.90387
 Alpha virt. eigenvalues --    5.93127   5.93433   5.95429   5.96161   6.00471
 Alpha virt. eigenvalues --    6.06792   6.11397   6.12721   6.13792   6.19474
 Alpha virt. eigenvalues --    6.20286   6.82499   6.86255   6.87815   6.88069
 Alpha virt. eigenvalues --    6.88772   6.90134   6.91760   6.92067   6.92796
 Alpha virt. eigenvalues --    6.94051   6.97297   7.00267   7.02031   7.04414
 Alpha virt. eigenvalues --    7.05377   7.05542   7.06649   7.08084   7.08913
 Alpha virt. eigenvalues --    7.10316   7.11379   7.18507   7.20014   7.21758
 Alpha virt. eigenvalues --    7.22195   7.22703   7.22774   7.26817   7.28327
 Alpha virt. eigenvalues --    7.28473   7.30659   7.31991   7.35381   7.40163
 Alpha virt. eigenvalues --    7.41549   7.44192   7.52843   9.89283   9.98932
 Alpha virt. eigenvalues --   10.18014  10.33834  16.59637  16.62802  16.74865
 Alpha virt. eigenvalues --   16.85799  17.02693  23.43424  23.71563  23.71956
 Alpha virt. eigenvalues --   23.72701  23.77388  23.83372  23.83529  23.84316
 Alpha virt. eigenvalues --   23.84566  23.85659  23.85787  23.86142  23.88024
 Alpha virt. eigenvalues --   23.88274  23.89737  23.89983  23.91124  23.91494
 Alpha virt. eigenvalues --   23.91855  23.92252  23.92380  23.93410  23.93771
 Alpha virt. eigenvalues --   23.94420  23.94814  23.95258  23.95643  23.95862
 Alpha virt. eigenvalues --   23.96540  23.96650  23.96728  23.96941  23.97440
 Alpha virt. eigenvalues --   23.97783  23.98251  23.98637  23.99108  23.99472
 Alpha virt. eigenvalues --   24.00112  24.00439  24.00764  24.01240  24.02256
 Alpha virt. eigenvalues --   24.02585  24.02661  24.03256  24.03409  24.03968
 Alpha virt. eigenvalues --   24.04566  24.04584  24.05547  24.05754  24.06975
 Alpha virt. eigenvalues --   24.07065  24.07440  24.08218  24.08942  24.10354
 Alpha virt. eigenvalues --   24.10831  24.11053  24.11538  24.12397  24.12587
 Alpha virt. eigenvalues --   24.12817  24.13737  24.17899  24.19293  24.22199
 Alpha virt. eigenvalues --   24.23041  24.23704  24.24189  24.26241  24.27999
 Alpha virt. eigenvalues --   24.29549  24.31628  24.36269  24.38139  26.31807
 Alpha virt. eigenvalues --   26.35385  26.54011  26.57164  26.84860  27.13925
 Alpha virt. eigenvalues --   27.31848  27.41290  27.53575  27.63222  27.89022
 Alpha virt. eigenvalues --   28.28317  35.56758  35.58857  35.58997  35.62651
 Alpha virt. eigenvalues --   35.65032  35.68543  35.69268  35.69534  35.81864
 Alpha virt. eigenvalues --   35.83549  35.85234  35.91234  49.94300  50.03070
 Alpha virt. eigenvalues --   50.04028  50.04204  50.05659  50.07621  77.30152
 Alpha virt. eigenvalues --   77.31830  77.37848  77.44531  77.53889 215.91685
 Alpha virt. eigenvalues --  216.02860 216.25699 216.42128
          Condensed to atoms (all electrons):
 Mulliken charges:
               1
     1  C   -0.409754
     2  C   -0.054416
     3  C    0.318202
     4  C   -0.311425
     5  C   -0.573473
     6  C   -0.268115
     7  C    0.291442
     8  C   -0.402830
     9  C   -0.448948
    10  C    0.288392
    11  O   -0.472084
    12  C   -0.514824
    13  C   -0.387137
    14  C   -0.003407
    15  C    0.382546
    16  C   -0.304949
    17  C   -0.287894
    18  C   -0.227452
    19  C   -0.307619
    20  C    0.056397
    21  O   -0.175741
    22  C   -0.383694
    23  C   -0.600492
    24  C    0.424503
    25  O   -0.381164
    26  N   -0.227360
    27  C    0.126329
    28  C   -0.185778
    29  C   -0.037286
    30  C   -0.251417
    31  N   -0.017348
    32  C   -0.083942
    33  N   -0.385156
    34  N   -0.663245
    35  C   -0.497468
    36  C   -0.123752
    37  C    0.383217
    38  C   -0.233118
    39  C    0.479210
    40  N   -0.095612
    41  C   -0.107732
    42  C   -0.410063
    43  C   -0.198935
    44  C   -0.477246
    45  C   -0.131612
    46  Co  -1.411538
    47  C   -0.174928
    48  C    0.164681
    49  C    0.050374
    50  C   -0.205639
    51  C   -0.267789
    52  C    0.063842
    53  C    0.418380
    54  C   -0.078186
    55  C    0.408091
    56  C   -0.479522
    57  C    0.348699
    58  C    0.083921
    59  C    0.029106
    60  C    0.428356
    61  C   -0.095758
    62  C    0.232995
    63  C    0.285403
    64  C   -0.052832
    65  C   -0.271660
    66  C   -0.176717
    67  N    0.860102
    68  N    0.235642
    69  N   -0.329439
    70  N    0.255712
    71  C   -0.361671
    72  C   -0.600240
    73  C    0.014027
    74  O   -0.416255
    75  N   -0.258673
    76  C   -0.379701
    77  C   -0.471958
    78  C   -0.431022
    79  C   -0.473426
    80  C    0.327225
    81  O   -0.606106
    82  N   -0.320692
    83  C   -0.388954
    84  C   -0.625711
    85  C   -0.348290
    86  C   -0.460807
    87  C   -0.364474
    88  C   -0.873165
    89  C   -0.239632
    90  C   -0.544026
    91  Cl  -0.825590
    92  C    1.690391
    93  C    1.072329
    94  Cl  -0.102751
    95  Cl   0.210803
    96  H    0.084721
    97  H    0.092543
    98  H    0.092046
    99  H    0.095931
   100  H    0.157954
   101  H    0.157743
   102  H    0.159076
   103  H    0.094618
   104  H    0.102931
   105  H    0.131454
   106  H    0.154132
   107  H    0.123453
   108  H    0.266428
   109  H    0.104244
   110  H    0.085244
   111  H    0.098948
   112  H    0.096865
   113  H    0.101956
   114  H    0.105412
   115  H    0.176173
   116  H    0.182842
   117  H    0.087821
   118  H    0.108740
   119  H    0.125993
   120  H    0.301024
   121  H    0.202214
   122  H    0.114476
   123  H    0.130039
   124  H    0.085455
   125  H    0.104592
   126  H    0.083214
   127  H    0.125965
   128  H    0.147762
   129  H    0.369006
   130  H    0.427274
   131  H    0.292145
   132  H    0.223181
   133  H    0.333864
   134  H    0.115742
   135  H    0.104739
   136  H    0.105897
   137  H    0.108726
   138  H    0.101016
   139  H    0.124902
   140  H    0.145729
   141  H    0.109779
   142  H    0.104676
   143  H    0.146296
   144  H    0.085842
   145  H    0.085572
   146  H    0.113673
   147  H    0.085176
   148  H    0.092554
   149  H    0.131193
   150  H    0.126548
   151  H    0.146879
   152  H    0.144229
   153  H    0.140000
   154  H    0.124267
   155  H    0.155268
   156  H    0.158750
   157  H    0.228219
   158  H    0.121027
   159  H    0.116839
   160  H    0.123015
   161  H    0.134053
   162  H    0.126680
   163  H    0.123882
   164  H    0.108204
   165  H    0.118230
   166  H    0.097928
   167  H    0.140349
   168  H    0.297053
   169  H    0.118809
   170  H    0.135101
   171  H    0.223884
   172  H    0.111678
   173  H    0.114040
   174  H    0.106866
   175  H    0.105068
   176  H    0.117208
   177  H    0.109353
   178  H    0.114404
   179  H    0.133400
   180  H    0.110624
   181  H    0.141065
   182  H    0.142118
   183  H    0.122480
   184  H    0.130572
   185  H    0.113209
   186  H    0.110486
   187  H    0.122988
   188  H    0.137616
   189  Cl  -0.742113
   190  H    0.104045
   191  H    0.108688
   192  H    0.124010
   193  H    0.129841
   194  H    0.125579
   195  H    0.113150
   196  H    0.108741
   197  H    0.110146
   198  H    0.109782
   199  H    0.090680
   200  H    0.115374
   201  H    0.112192
   202  H    0.090727
   203  H    0.106837
   204  H    0.101307
   205  H    0.108812
   206  H    0.170857
   207  H    0.189255
   208  H    0.303413
   209  C    0.041556
   210  O   -0.489519
   211  N   -0.233628
   212  H    0.241064
   213  C   -0.188013
   214  H    0.106198
   215  H    0.134864
   216  H    0.114095
 Sum of Mulliken charges =   1.00000
 Mulliken charges with hydrogens summed into heavy atoms:
               1
     1  C   -0.117572
     2  C    0.122848
     3  C    0.318202
     4  C   -0.219379
     5  C   -0.477542
     6  C   -0.110161
     7  C    0.449185
     8  C   -0.243754
     9  C   -0.117138
    10  C    0.391323
    11  O   -0.205657
    12  C   -0.105785
    13  C   -0.098855
    14  C    0.180786
    15  C    0.382546
    16  C   -0.202992
    17  C   -0.191029
    18  C   -0.051279
    19  C   -0.202207
    20  C    0.056397
    21  O    0.007101
    22  C   -0.050332
    23  C   -0.365760
    24  C    0.424503
    25  O   -0.381164
    26  N    0.275878
    27  C    0.355221
    28  C    0.029716
    29  C    0.150519
    30  C    0.022310
    31  N    0.351658
    32  C   -0.083942
    33  N    0.171889
    34  N    0.056174
    35  C   -0.182673
    36  C    0.086885
    37  C    0.383217
    38  C   -0.124392
    39  C    0.479210
    40  N    0.075245
    41  C   -0.107732
    42  C   -0.309047
    43  C   -0.053206
    44  C   -0.352344
    45  C   -0.021833
    46  Co  -1.411538
    47  C   -0.174928
    48  C    0.164681
    49  C    0.196670
    50  C   -0.205639
    51  C   -0.267789
    52  C    0.063842
    53  C    0.418380
    54  C    0.007656
    55  C    0.408091
    56  C   -0.393950
    57  C    0.348699
    58  C    0.083921
    59  C    0.142779
    60  C    0.428356
    61  C   -0.095758
    62  C    0.232995
    63  C    0.285403
    64  C    0.032344
    65  C   -0.179106
    66  C    0.227903
    67  N    0.860102
    68  N    0.235642
    69  N   -0.329439
    70  N    0.255712
    71  C    0.046825
    72  C   -0.286222
    73  C    0.014027
    74  O   -0.416255
    75  N    0.272959
    76  C   -0.011994
    77  C   -0.088210
    78  C   -0.080706
    79  C   -0.235148
    80  C    0.327225
    81  O   -0.606106
    82  N    0.165616
    83  C   -0.009464
    84  C   -0.176109
    85  C   -0.019148
    86  C   -0.133005
    87  C    0.020615
    88  C   -0.477995
    89  C    0.092751
    90  C   -0.159413
    91  Cl  -0.825590
    92  C    1.690391
    93  C    1.072329
    94  Cl  -0.102751
    95  Cl   0.210803
   189  Cl  -0.742113
   209  C    0.041556
   210  O   -0.489519
   211  N    0.007436
   213  C    0.167145
 Electronic spatial extent (au):  <R**2>=         106701.7180
 Charge=              1.0000 electrons
 Dipole moment (field-independent basis, Debye):
    X=              0.3204    Y=              8.2694    Z=              3.1778  Tot=              8.8648
 Quadrupole moment (field-independent basis, Debye-Ang):
   XX=           -586.0186   YY=           -501.3345   ZZ=           -585.5085
   XY=            -11.1496   XZ=            -43.1487   YZ=            -13.5501
 Traceless Quadrupole moment (field-independent basis, Debye-Ang):
   XX=            -28.3981   YY=             56.2860   ZZ=            -27.8880
   XY=            -11.1496   XZ=            -43.1487   YZ=            -13.5501
 Octapole moment (field-independent basis, Debye-Ang**2):
  XXX=            850.7413  YYY=            419.3469  ZZZ=             47.1010  XYY=           -185.9162
  XXY=            168.7604  XXZ=            203.8093  XZZ=             11.7202  YZZ=             26.3425
  YYZ=             44.7150  XYZ=            -88.9290
 Hexadecapole moment (field-independent basis, Debye-Ang**3):
 XXXX=         -81163.6881 YYYY=         -36248.6324 ZZZZ=         -25375.6474 XXXY=            992.7019
 XXXZ=          -3122.2293 YYYX=          -1108.4439 YYYZ=           -156.9220 ZZZX=           -651.4912
 ZZZY=           -133.6392 XXYY=         -17511.7763 XXZZ=         -16374.3355 YYZZ=         -10568.6445
 XXYZ=            -37.7748 YYXZ=              2.1283 ZZXY=             47.6996
 N-N= 2.694168558925D+04 E-N=-6.952967758899D+04  KE= 6.425143989570D+03
 Leave Link  601 at Fri Aug 30 14:22:48 2024, MaxMem= 26843545600 cpu:        12.1
 (Enter /apps/z_install_tree/linux-rocky8-ivybridge/gcc-12.2.0/gaussian-09-D.01-wczn3gur5lpur3omlkzwa2l5ecyxp5ef/g09/l9999.exe)
 1\1\GINC-K143\SP\RB3LYP\Gen\C77H116Cl4Co1N12O6(1+)\Z5112331\30-Aug-202
 4\0\\#p b3lyp/gen nosymm guess=read em=gd3 int=ultrafine scf=xqc scfcy
 c=96\\TS1P_out_freq11_l\\1,1\C,0,7.593343,-4.287372,4.037047\C,0,6.629
 277,-3.249027,4.647687\C,0,5.82926,-2.417575,3.66739\C,0,6.11338,-1.06
 0846,3.464467\C,0,4.738635,-2.976521,2.981954\C,0,5.323067,-0.274428,2
 .621895\C,0,3.943332,-2.19744,2.141714\C,0,4.229928,-0.840972,1.965398
 \C,0,-3.535245,7.108137,1.467409\C,0,-2.065952,6.743447,1.202927\O,0,-
 1.800447,6.61693,-0.217306\C,0,-1.675257,5.410552,1.825743\C,0,-6.6503
 44,2.909008,5.456342\C,0,-5.274324,2.3165,5.809234\C,0,-4.504746,1.822
 319,4.605242\C,0,-4.907151,0.638024,3.966385\C,0,-3.378148,2.484337,4.
 109651\C,0,-4.183755,0.098844,2.908543\C,0,-2.640981,1.96602,3.041011\
 C,0,-3.033192,0.756921,2.472079\O,0,-2.302389,0.131329,1.470156\C,0,-3
 .895718,-5.562584,4.008436\C,0,-2.745493,-4.551102,4.00204\C,0,-2.9751
 79,-3.377968,3.053739\O,0,-3.977736,-3.301833,2.332267\N,0,-1.98939,-2
 .457295,3.002623\C,0,-7.768105,1.214834,-2.045382\C,0,-8.126706,2.1375
 04,-0.857878\C,0,-7.220796,3.366877,-0.64634\C,0,-6.018934,3.126644,0.
 282463\N,0,-4.961021,2.285378,-0.273418\C,0,-3.760777,2.712584,-0.6804
 03\N,0,-3.505278,4.016331,-0.886007\N,0,-2.78189,1.822603,-0.87228\C,0
 ,10.006015,5.695768,0.477637\C,0,8.668792,5.221175,1.065769\C,0,7.8073
 25,4.416063,0.134847\C,0,8.078639,4.048144,-1.158379\C,0,6.514841,3.85
 3713,0.451065\N,0,7.030583,3.296197,-1.671239\C,0,6.059885,3.154881,-0
 .702304\C,0,5.70305,3.864855,1.599515\C,0,4.837578,2.477111,-0.729639\
 C,0,4.485152,3.190602,1.578621\C,0,4.060719,2.499132,0.424294\Co,0,1.1
 08409,-1.721394,-1.915523\C,0,-1.448679,-2.882512,-2.225853\C,0,-2.940
 243,-2.394006,-2.186323\C,0,-2.870992,-1.107246,-3.090119\C,0,-1.41471
 6,-0.679862,-2.944368\C,0,-0.899848,0.612095,-3.339929\C,0,0.449875,0.
 89163,-3.250766\C,0,1.193399,2.205083,-3.650131\C,0,2.582211,1.605277,
 -4.022315\C,0,2.637954,0.39963,-3.12365\C,0,3.831127,-0.2174,-2.79633\
 C,0,3.983766,-1.416935,-2.11389\C,0,5.354694,-2.023144,-1.87989\C,0,4.
 987601,-3.378025,-1.190881\C,0,3.465446,-3.32515,-1.066283\C,0,2.71562
 1,-4.303726,-0.443339\C,0,1.277969,-4.295844,-0.504793\C,0,0.317086,-5
 .335057,0.116642\C,0,-1.005263,-4.997164,-0.644723\C,0,-0.838244,-3.50
 6087,-0.950351\C,0,-1.128652,-3.776131,-3.443148\N,0,-0.683965,-1.6157
 98,-2.391439\N,0,1.402934,-0.030582,-2.79944\N,0,2.963911,-2.172655,-1
 .663338\N,0,0.617614,-3.326549,-1.086709\C,0,-3.948579,-3.435192,-2.67
 1425\C,0,-3.299514,-1.996993,-0.722392\C,0,-4.692341,-1.437885,-0.5239
 33\O,0,-5.078847,-0.401195,-1.103004\N,0,-5.508835,-2.122953,0.297238\
 C,0,-3.336945,-1.282358,-4.549189\C,0,-1.888412,1.598761,-3.937866\C,0
 ,0.653444,3.061418,-4.807194\C,0,1.458399,3.104735,-2.393765\C,0,0.325
 069,3.965501,-1.860668\O,0,-0.854582,3.576472,-1.811115\N,0,0.654583,5
 .181833,-1.385467\C,0,2.724475,1.145172,-5.487163\C,0,6.215875,-1.1401
 7,-0.954279\C,0,6.073507,-2.160669,-3.234796\C,0,5.484426,-4.631842,-1
 .934628\C,0,3.415917,-5.391893,0.34927\C,0,0.190919,-5.050342,1.629856
 \C,0,0.643558,-6.818829,-0.126409\C,0,-2.287207,-5.41571,0.073307\Cl,0
 ,1.059061,2.318401,3.862227\C,0,0.79266,1.497659,2.342474\C,0,0.806859
 ,0.171707,2.153482\Cl,0,0.445157,2.584222,1.014687\Cl,0,0.816917,-0.63
 5504,0.365737\H,0,7.20101,-2.580651,5.301869\H,0,5.925608,-3.781111,5.
 301371\H,0,6.952937,-0.610644,3.989044\H,0,4.496294,-4.026454,3.13404\
 H,0,5.552506,0.7774,2.478293\H,0,3.09075,-2.633897,1.633633\H,0,3.6075
 69,-0.235846,1.315451\H,0,8.410023,-3.809665,3.488114\H,0,-1.416266,7.
 530233,1.614501\H,0,-0.640489,5.159845,1.583205\H,0,-2.320824,4.607538
 ,1.46004\H,0,-1.76573,5.459575,2.914797\H,0,-1.995886,7.464631,-0.6389
 2\H,0,-4.175974,6.512398,0.80786\H,0,-4.679098,3.052624,6.360549\H,0,-
 5.419122,1.47019,6.491859\H,0,-3.04887,3.40837,4.577828\H,0,-5.78222,0
 .107436,4.333828\H,0,-1.759967,2.483658,2.682226\H,0,-4.458025,-0.8493
 82,2.459582\H,0,-1.389076,0.463891,1.459245\H,0,-7.130943,2.322011,4.6
 65602\H,0,-2.543659,-4.159033,5.006451\H,0,-1.813036,-5.028843,3.67932
 5\H,0,-2.064377,-1.662762,2.376185\H,0,-1.1837,-2.503491,3.606097\H,0,
 -4.369644,-5.594487,3.024527\H,0,-9.161094,2.459839,-1.006898\H,0,-8.1
 32482,1.541553,0.066156\H,0,-7.813473,4.164203,-0.181279\H,0,-6.872695
 ,3.760577,-1.610637\H,0,-5.568946,4.076351,0.58743\H,0,-6.359803,2.645
 238,1.206783\H,0,-5.127521,1.281389,-0.369477\H,0,-1.88827,2.142689,-1
 .240485\H,0,-2.826226,0.940734,-0.381909\H,0,-4.257436,4.664935,-1.044
 415\H,0,-2.556932,4.296377,-1.134239\H,0,-6.720197,0.914303,-2.019752\
 H,0,8.10026,6.093654,1.4181\H,0,8.866363,4.623404,1.96695\H,0,8.944892
 ,4.262834,-1.767026\H,0,6.027818,4.390062,2.493379\H,0,3.853531,3.1836
 41,2.462446\H,0,4.511049,1.928259,-1.604188\H,0,3.119694,1.960154,0.43
 8822\H,0,9.854842,6.380041,-0.363465\H,0,-3.513966,-0.342885,-2.649771
 \H,0,3.389179,2.313392,-3.801219\H,0,4.734223,0.263436,-3.152351\H,0,5
 .418213,-3.382417,-0.18234\H,0,-0.949786,-5.543987,-1.592086\H,0,-1.13
 4721,-2.90809,-0.083251\H,0,-1.354265,-3.259839,-4.375738\H,0,-1.68991
 3,-4.712705,-3.423511\H,0,-0.060583,-4.005738,-3.443446\H,0,-4.963828,
 -3.024558,-2.659451\H,0,-3.751299,-3.770635,-3.68935\H,0,-3.948758,-4.
 315182,-2.025284\H,0,-2.595061,-1.240468,-0.370483\H,0,-3.189147,-2.85
 7442,-0.064986\H,0,-6.410875,-1.708735,0.495662\H,0,-3.241412,-0.34513
 6,-5.099202\H,0,-2.765417,-2.037645,-5.091965\H,0,-1.67637,2.616555,-3
 .628163\H,0,-1.881524,1.56516,-5.033211\H,0,-2.905151,1.383842,-3.6104
 08\H,0,1.44394,3.739663,-5.1461\H,0,-0.196799,3.676053,-4.511632\H,0,0
 .346528,2.449777,-5.656879\H,0,2.305632,3.759549,-2.623875\H,0,1.78539
 4,2.472968,-1.560689\H,0,-0.074511,5.741351,-0.94063\H,0,2.718469,1.98
 7907,-6.183029\H,0,1.915043,0.460682,-5.760352\H,0,5.741283,-0.993595,
 0.015909\H,0,6.392406,-0.153149,-1.393581\H,0,7.189099,-1.616328,-0.79
 158\H,0,5.481115,-2.715573,-3.967112\H,0,6.278729,-1.173179,-3.656968\
 H,0,7.037463,-2.663979,-3.118626\H,0,6.570274,-4.600889,-2.057546\H,0,
 5.248773,-5.544562,-1.388908\H,0,4.409959,-5.074579,0.665985\H,0,2.867
 902,-5.6248,1.263335\H,0,3.522374,-6.330424,-0.205116\H,0,-0.198292,-4
 .04634,1.818916\H,0,-0.482423,-5.778463,2.091971\H,0,1.156402,-5.13108
 4,2.134119\H,0,-0.246063,-7.42373,0.075712\H,0,1.438476,-7.194405,0.51
 9789\H,0,-3.155711,-5.33958,-0.583938\H,0,-2.491662,-4.803393,0.951583
 \Cl,0,1.051166,-0.933792,3.459818\H,0,5.030735,-4.713693,-2.925965\H,0
 ,0.938418,-6.992951,-1.166183\H,0,-2.230241,-6.45921,0.398535\H,0,-4.3
 91221,-1.57025,-4.577239\H,0,3.66975,0.609781,-5.611573\H,0,-7.946824,
 1.754236,-2.981882\H,0,-4.666202,-5.298903,4.736858\H,0,-3.525128,-6.5
 63011,4.231214\H,0,-7.314411,2.873904,6.320121\H,0,-6.572148,3.941043,
 5.101753\H,0,-3.747248,8.168087,1.300982\H,0,-3.791142,6.840523,2.4926
 88\H,0,7.070457,-4.965944,3.355102\H,0,8.002801,-4.870457,4.862132\H,0
 ,10.606377,4.84993,0.126288\H,0,10.573464,6.213666,1.250786\H,0,7.0120
 57,2.875823,-2.585163\H,0,1.612015,5.496393,-1.356401\H,0,-5.115498,-2
 .784154,0.964978\C,0,-8.700367,0.022152,-1.997985\O,0,-9.910835,0.1284
 12,-2.155312\N,0,-8.09754,-1.152677,-1.652121\H,0,-7.090128,-1.20088,-
 1.709741\C,0,-8.887544,-2.361313,-1.556799\H,0,-8.320924,-3.123477,-1.
 015029\H,0,-9.812381,-2.143155,-1.019173\H,0,-9.162863,-2.759507,-2.54
 1419\\Version=ES64L-G09RevD.01\HF=-6758.9943772\RMSD=5.945e-09\Dipole=
 0.1260502,3.2534331,1.2502461\Quadrupole=-21.1132573,41.8472965,-20.73
 40392,-8.2894642,-32.079991,-10.0741379\PG=C01 [X(C77H116Cl4Co1N12O6)]
 \\@


 Once you get people laughing, they're
 listening and you can tell them almost anything.
                                 -- Herb Gardner
 Job cpu time:      19 days  9 hours 37 minutes 17.6 seconds.
 File lengths (MBytes):  RWF=   7455 Int=      0 D2E=      0 Chk=    634 Scr=      2
 Normal termination of Gaussian 09 at Fri Aug 30 14:22:50 2024.
