 Entering Gaussian System, Link 0=g16
 Initial command:
 /apps/gaussian/g16c01/g16/l1.exe "/jobfs/145008392.gadi-pbs/Gau-1913558.inp" -scrdir="/jobfs/145008392.gadi-pbs/"
 Entering Link 1 = /apps/gaussian/g16c01/g16/l1.exe PID=   1913559.
  
 Copyright (c) 1988-2019, Gaussian, Inc.  All Rights Reserved.
  
 This is part of the Gaussian(R) 16 program.  It is based on
 the Gaussian(R) 09 system (copyright 2009, Gaussian, Inc.),
 the Gaussian(R) 03 system (copyright 2003, Gaussian, Inc.),
 the Gaussian(R) 98 system (copyright 1998, Gaussian, Inc.),
 the Gaussian(R) 94 system (copyright 1995, Gaussian, Inc.),
 the Gaussian 92(TM) system (copyright 1992, Gaussian, Inc.),
 the Gaussian 90(TM) system (copyright 1990, Gaussian, Inc.),
 the Gaussian 88(TM) system (copyright 1988, Gaussian, Inc.),
 the Gaussian 86(TM) system (copyright 1986, Carnegie Mellon
 University), and the Gaussian 82(TM) system (copyright 1983,
 Carnegie Mellon University). Gaussian is a federally registered
 trademark of Gaussian, Inc.
  
 This software contains proprietary and confidential information,
 including trade secrets, belonging to Gaussian, Inc.
  
 This software is provided under written license and may be
 used, copied, transmitted, or stored only in accord with that
 written license.
  
 The following legend is applicable only to US Government
 contracts under FAR:
  
                    RESTRICTED RIGHTS LEGEND
  
 Use, reproduction and disclosure by the US Government is
 subject to restrictions as set forth in subparagraphs (a)
 and (c) of the Commercial Computer Software - Restricted
 Rights clause in FAR 52.227-19.
  
 Gaussian, Inc.
 340 Quinnipiac St., Bldg. 40, Wallingford CT 06492
  
  
 ---------------------------------------------------------------
 Warning -- This program may not be used in any manner that
 competes with the business of Gaussian, Inc. or will provide
 assistance to any competitor of Gaussian, Inc.  The licensee
 of this program is prohibited from giving any competitor of
 Gaussian, Inc. access to this program.  By using this program,
 the user acknowledges that Gaussian, Inc. is engaged in the
 business of creating and licensing software in the field of
 computational chemistry and represents and warrants to the
 licensee that it is not a competitor of Gaussian, Inc. and that
 it will not use this program in any manner prohibited above.
 ---------------------------------------------------------------
  

 Cite this work as:
 Gaussian 16, Revision C.01,
 M. J. Frisch, G. W. Trucks, H. B. Schlegel, G. E. Scuseria, 
 M. A. Robb, J. R. Cheeseman, G. Scalmani, V. Barone, 
 G. A. Petersson, H. Nakatsuji, X. Li, M. Caricato, A. V. Marenich, 
 J. Bloino, B. G. Janesko, R. Gomperts, B. Mennucci, H. P. Hratchian, 
 J. V. Ortiz, A. F. Izmaylov, J. L. Sonnenberg, D. Williams-Young, 
 F. Ding, F. Lipparini, F. Egidi, J. Goings, B. Peng, A. Petrone, 
 T. Henderson, D. Ranasinghe, V. G. Zakrzewski, J. Gao, N. Rega, 
 G. Zheng, W. Liang, M. Hada, M. Ehara, K. Toyota, R. Fukuda, 
 J. Hasegawa, M. Ishida, T. Nakajima, Y. Honda, O. Kitao, H. Nakai, 
 T. Vreven, K. Throssell, J. A. Montgomery, Jr., J. E. Peralta, 
 F. Ogliaro, M. J. Bearpark, J. J. Heyd, E. N. Brothers, K. N. Kudin, 
 V. N. Staroverov, T. A. Keith, R. Kobayashi, J. Normand, 
 K. Raghavachari, A. P. Rendell, J. C. Burant, S. S. Iyengar, 
 J. Tomasi, M. Cossi, J. M. Millam, M. Klene, C. Adamo, R. Cammi, 
 J. W. Ochterski, R. L. Martin, K. Morokuma, O. Farkas, 
 J. B. Foresman, and D. J. Fox, Gaussian, Inc., Wallingford CT, 2019.
 
 ******************************************
 Gaussian 16:  ES64L-G16RevC.01  3-Jul-2019
                10-Jul-2025 
 ******************************************
 %chk=Cl2F2_iso1_wat_opt_freq.chk
 %mem=20GB
 %nprocshared=20
 Will use up to   20 processors via shared memory.
 ---------------------------------------
 #P M052X/6-31G* scrf(SMD,solvent=water)
 ---------------------------------------
 1/38=1,172=1/1;
 2/12=2,17=6,18=5,40=1/2;
 3/5=1,6=6,7=1,11=2,25=1,30=1,70=32201,72=1,74=-38/1,2,3;
 4//1;
 5/5=2,38=5,53=1/2;
 6/7=2,8=2,9=2,10=2,28=1/1;
 99/5=1,9=1/99;
 Leave Link    1 at Thu Jul 10 14:46:23 2025, MaxMem=  2684354560 cpu:               0.9 elap:               0.1
 (Enter /apps/gaussian/g16c01/g16/l101.exe)
 -------------------------
 Cl2F2_iso1_wat_M05-2x.gjf
 -------------------------
 Symbolic Z-matrix:
 Charge =  0 Multiplicity = 1
 C                     0.66473   0.41641   0.00009 
 C                    -0.66478   0.41621   0.0002 
 Cl                    1.66452  -0.97833  -0.00015 
 F                     1.33204   1.57038  -0.00018 
 F                    -1.33202   1.57041   0.00006 
 Cl                   -1.66451  -0.97831   0.00011 
 
 ITRead=  0  0  0  0  0  0
 MicOpt= -1 -1 -1 -1 -1 -1
 NAtoms=      6 NQM=        6 NQMF=       0 NMMI=      0 NMMIF=      0
                NMic=       0 NMicF=      0.
                    Isotopes and Nuclear Properties:
 (Nuclear quadrupole moments (NQMom) in fm**2, nuclear magnetic moments (NMagM)
  in nuclear magnetons)

  Atom         1           2           3           4           5           6
 IAtWgt=          12          12          35          19          19          35
 AtmWgt=  12.0000000  12.0000000  34.9688527  18.9984033  18.9984033  34.9688527
 NucSpn=           0           0           3           1           1           3
 AtZEff=  -0.0000000  -0.0000000  -0.0000000  -0.0000000  -0.0000000  -0.0000000
 NQMom=    0.0000000   0.0000000  -8.1650000   0.0000000   0.0000000  -8.1650000
 NMagM=    0.0000000   0.0000000   0.8218740   2.6288670   2.6288670   0.8218740
 AtZNuc=   6.0000000   6.0000000  17.0000000   9.0000000   9.0000000  17.0000000
 Leave Link  101 at Thu Jul 10 14:46:23 2025, MaxMem=  2684354560 cpu:               2.6 elap:               0.3
 (Enter /apps/gaussian/g16c01/g16/l202.exe)
                          Input orientation:                          
 ---------------------------------------------------------------------
 Center     Atomic      Atomic             Coordinates (Angstroms)
 Number     Number       Type             X           Y           Z
 ---------------------------------------------------------------------
      1          6           0        0.664725    0.416411    0.000085
      2          6           0       -0.664775    0.416208    0.000198
      3         17           0        1.664522   -0.978329   -0.000145
      4          9           0        1.332037    1.570384   -0.000184
      5          9           0       -1.332018    1.570410    0.000064
      6         17           0       -1.664514   -0.978311    0.000108
 ---------------------------------------------------------------------
                    Distance matrix (angstroms):
                    1          2          3          4          5
     1  C    0.000000
     2  C    1.329500   0.000000
     3  Cl   1.716069   2.714840   0.000000
     4  F    1.333026   2.306378   2.570308   0.000000
     5  F    2.306230   1.333190   3.933869   2.664055   0.000000
     6  Cl   2.714886   1.715856   3.329036   3.933849   2.570318
                    6
     6  Cl   0.000000
 Stoichiometry    C2Cl2F2
 Framework group  C1[X(C2Cl2F2)]
 Deg. of freedom    12
 Full point group                 C1      NOp   1
 Largest Abelian subgroup         C1      NOp   1
 Largest concise Abelian subgroup C1      NOp   1
                         Standard orientation:                         
 ---------------------------------------------------------------------
 Center     Atomic      Atomic             Coordinates (Angstroms)
 Number     Number       Type             X           Y           Z
 ---------------------------------------------------------------------
      1          6           0        0.664725    0.416411    0.000085
      2          6           0       -0.664775    0.416208    0.000198
      3         17           0        1.664522   -0.978329   -0.000145
      4          9           0        1.332037    1.570384   -0.000184
      5          9           0       -1.332018    1.570410    0.000064
      6         17           0       -1.664514   -0.978311    0.000108
 ---------------------------------------------------------------------
 Rotational constants (GHZ):           3.0667756           1.8594202           1.1575716
 Leave Link  202 at Thu Jul 10 14:46:23 2025, MaxMem=  2684354560 cpu:               1.4 elap:               0.1
 (Enter /apps/gaussian/g16c01/g16/l301.exe)
 Standard basis: 6-31G(d) (6D, 7F)
 Ernie: Thresh=  0.10000D-02 Tol=  0.10000D-05 Strict=F.
 There are    98 symmetry adapted cartesian basis functions of A   symmetry.
 There are    98 symmetry adapted basis functions of A   symmetry.
    98 basis functions,   216 primitive gaussians,    98 cartesian basis functions
    32 alpha electrons       32 beta electrons
       nuclear repulsion energy       350.8444391444 Hartrees.
 IExCor= 3428 DFT=T Ex+Corr=M052X ExCW=0 ScaHFX=  0.560000
 ScaDFX=  0.440000  0.440000  1.000000  1.000000 ScalE2=  1.000000  1.000000
 IRadAn=      5 IRanWt=     -1 IRanGd=            0 ICorTp=0 IEmpDi=  4
 NAtoms=    6 NActive=    6 NUniq=    6 SFac= 1.00D+00 NAtFMM=   60 NAOKFM=F Big=F
 Integral buffers will be    131072 words long.
 Raffenetti 2 integral format.
 Two-electron integral symmetry is turned on.
 ------------------------------------------------------------------------------
 Polarizable Continuum Model (PCM)
 =================================
 Model                : PCM.
 Atomic radii         : SMD-Coulomb.
 Polarization charges : Total charges.
 Charge compensation  : None.
 Solution method      : On-the-fly selection.
 Cavity type          : VdW (van der Waals Surface) (Alpha=1.000).
 Cavity algorithm     : GePol (No added spheres)
                        Default sphere list used, NSphG=    6.
                        Lebedev-Laikov grids with approx.  5.0 points / Ang**2.
                        Smoothing algorithm: York/Karplus (Gamma=1.0000).
                        Polarization charges: spherical gaussians, with
                                              point-specific exponents (IZeta= 3).
                        Self-potential: point-specific (ISelfS= 7).
                        Self-field    : sphere-specific E.n sum rule (ISelfD= 2).
 Solvent              : Water, Eps=  78.355300 Eps(inf)=   1.777849
 ------------------------------------------------------------------------------
 Spheres list:
 ISph  on   Nord     Re0    Alpha      Xe            Ye            Ze
    1   C      1    1.8500  1.000      0.664725      0.416411      0.000085
    2   C      2    1.8500  1.000     -0.664775      0.416208      0.000198
    3  Cl      3    2.3800  1.000      1.664522     -0.978329     -0.000145
    4   F      4    1.7300  1.000      1.332037      1.570384     -0.000184
    5   F      5    1.7300  1.000     -1.332018      1.570410      0.000064
    6  Cl      6    2.3800  1.000     -1.664514     -0.978311      0.000108
 ------------------------------------------------------------------------------
 GePol: Number of generator spheres                  =       6
 GePol: Total number of spheres                      =       6
 GePol: Number of exposed spheres                    =       6 (100.00%)
 GePol: Number of points                             =     954
 GePol: Average weight of points                     =       0.15
 GePol: Minimum weight of points                     =   0.86D-04
 GePol: Maximum weight of points                     =    0.21501
 GePol: Number of points with low weight             =      12
 GePol: Fraction of low-weight points (<1% of avg)   =       1.26%
 GePol: Cavity surface area                          =    146.927 Ang**2
 GePol: Cavity volume                                =    136.746 Ang**3
 ------------------------------------------------------------------------------
 Atomic radii for non-electrostatic terms: SMD-CDS.
 ------------------------------------------------------------------------------
 PCM non-electrostatic energy =         0.0060274014 Hartrees.
 Nuclear repulsion after PCM non-electrostatic terms =      350.8504665458 Hartrees.
 Leave Link  301 at Thu Jul 10 14:46:24 2025, MaxMem=  2684354560 cpu:               1.6 elap:               0.2
 (Enter /apps/gaussian/g16c01/g16/l302.exe)
 NPDir=0 NMtPBC=     1 NCelOv=     1 NCel=       1 NClECP=     1 NCelD=      1
         NCelK=      1 NCelE2=     1 NClLst=     1 CellRange=     0.0.
 One-electron integrals computed using PRISM.
 One-electron integral symmetry used in STVInt
 NBasis=    98 RedAO= T EigKep=  2.65D-03  NBF=    98
 NBsUse=    98 1.00D-06 EigRej= -1.00D+00 NBFU=    98
 Precomputing XC quadrature grid using
 IXCGrd= 4 IRadAn=           5 IRanWt=          -1 IRanGd=           0 AccXCQ= 0.00D+00.
 Generated NRdTot=       0 NPtTot=           0 NUsed=           0 NTot=          32
 NSgBfM=    97    97    97    97    97 MxSgAt=     6 MxSgA2=     6.
 Leave Link  302 at Thu Jul 10 14:46:24 2025, MaxMem=  2684354560 cpu:               3.4 elap:               0.3
 (Enter /apps/gaussian/g16c01/g16/l303.exe)
 DipDrv:  MaxL=1.
 Leave Link  303 at Thu Jul 10 14:46:24 2025, MaxMem=  2684354560 cpu:               2.3 elap:               0.2
 (Enter /apps/gaussian/g16c01/g16/l401.exe)
 ExpMin= 1.43D-01 ExpMax= 2.52D+04 ExpMxC= 3.78D+03 IAcc=3 IRadAn=         5 AccDes= 0.00D+00
 Harris functional with IExCor= 1009 and IRadAn=       5 diagonalized for initial guess.
 HarFok:  IExCor= 1009 AccDes= 0.00D+00 IRadAn=         5 IDoV= 1 UseB2=F ITyADJ=14
 ICtDFT=  3500011 ScaDFX=  1.000000  1.000000  1.000000  1.000000
 FoFCou: FMM=F IPFlag=           0 FMFlag=      100000 FMFlg1=           0
         NFxFlg=           0 DoJE=T BraDBF=F KetDBF=T FulRan=T
         wScrn=  0.000000 ICntrl=       500 IOpCl=  0 I1Cent=   200000004 NGrid=           0
         NMat0=    1 NMatS0=      1 NMatT0=    0 NMatD0=    1 NMtDS0=    0 NMtDT0=    0
 Petite list used in FoFCou.
 Harris En= -1195.40658929175    
 JPrj=0 DoOrth=F DoCkMO=F.
 Leave Link  401 at Thu Jul 10 14:46:25 2025, MaxMem=  2684354560 cpu:               4.6 elap:               0.3
 (Enter /apps/gaussian/g16c01/g16/l502.exe)
 Keep R1 ints in memory in canonical form, NReq=30232002.
 FoFCou: FMM=F IPFlag=           0 FMFlag=           0 FMFlg1=           0
         NFxFlg=           0 DoJE=F BraDBF=F KetDBF=F FulRan=T
         wScrn=  0.000000 ICntrl=       600 IOpCl=  0 I1Cent=           0 NGrid=           0
         NMat0=    1 NMatS0=   4851 NMatT0=    0 NMatD0=    1 NMtDS0=    0 NMtDT0=    0
 Symmetry not used in FoFCou.
 Two-electron integral symmetry not used.
 Closed shell SCF:
 Using DIIS extrapolation, IDIIS=  1040.
 NGot=  2684354560 LenX=  2672563676 LenY=  2672553631
 Requested convergence on RMS density matrix=1.00D-08 within 128 cycles.
 Requested convergence on MAX density matrix=1.00D-06.
 Requested convergence on             energy=1.00D-06.
 No special actions if energy rises.

 Cycle   1  Pass 1  IDiag  1:
 Inv3:  Mode=1 IEnd=     2730348.
 Iteration    1 A*A^-1 deviation from unit magnitude is 3.77D-15 for    934.
 Iteration    1 A*A^-1 deviation from orthogonality  is 1.18D-15 for    952    817.
 Iteration    1 A^-1*A deviation from unit magnitude is 3.33D-15 for    934.
 Iteration    1 A^-1*A deviation from orthogonality  is 1.12D-15 for    937    935.
 E= -1196.10269516997    
 DIIS: error= 2.74D-02 at cycle   1 NSaved=   1.
 NSaved= 1 IEnMin= 1 EnMin= -1196.10269516997     IErMin= 1 ErrMin= 2.74D-02
 ErrMax= 2.74D-02  0.00D+00 EMaxC= 1.00D-01 BMatC= 7.94D-02 BMatP= 7.94D-02
 IDIUse=3 WtCom= 7.26D-01 WtEn= 2.74D-01
 Coeff-Com:  0.100D+01
 Coeff-En:   0.100D+01
 Coeff:      0.100D+01
 Gap=     0.372 Goal=   None    Shift=    0.000
 GapD=    0.372 DampG=1.000 DampE=0.500 DampFc=0.5000 IDamp=-1.
 Damping current iteration by 5.00D-01
 RMSDP=3.69D-03 MaxDP=8.50D-02              OVMax= 6.91D-02

 Cycle   2  Pass 1  IDiag  1:
 E= -1196.12321036079     Delta-E=       -0.020515190822 Rises=F Damp=T
 DIIS: error= 1.07D-02 at cycle   2 NSaved=   2.
 NSaved= 2 IEnMin= 2 EnMin= -1196.12321036079     IErMin= 2 ErrMin= 1.07D-02
 ErrMax= 1.07D-02  0.00D+00 EMaxC= 1.00D-01 BMatC= 1.04D-02 BMatP= 7.94D-02
 IDIUse=3 WtCom= 8.93D-01 WtEn= 1.07D-01
 Coeff-Com: -0.248D+00 0.125D+01
 Coeff-En:   0.000D+00 0.100D+01
 Coeff:     -0.221D+00 0.122D+01
 Gap=     0.376 Goal=   None    Shift=    0.000
 RMSDP=1.04D-03 MaxDP=1.17D-02 DE=-2.05D-02 OVMax= 3.99D-02

 Cycle   3  Pass 1  IDiag  1:
 E= -1196.14193005228     Delta-E=       -0.018719691487 Rises=F Damp=F
 DIIS: error= 5.21D-03 at cycle   3 NSaved=   3.
 NSaved= 3 IEnMin= 3 EnMin= -1196.14193005228     IErMin= 3 ErrMin= 5.21D-03
 ErrMax= 5.21D-03  0.00D+00 EMaxC= 1.00D-01 BMatC= 2.25D-03 BMatP= 1.04D-02
 IDIUse=3 WtCom= 9.48D-01 WtEn= 5.21D-02
 Coeff-Com: -0.181D+00 0.435D+00 0.747D+00
 Coeff-En:   0.000D+00 0.000D+00 0.100D+01
 Coeff:     -0.172D+00 0.412D+00 0.760D+00
 Gap=     0.356 Goal=   None    Shift=    0.000
 RMSDP=3.44D-04 MaxDP=7.08D-03 DE=-1.87D-02 OVMax= 6.83D-03

 Cycle   4  Pass 1  IDiag  1:
 E= -1196.14320614909     Delta-E=       -0.001276096810 Rises=F Damp=F
 DIIS: error= 9.28D-04 at cycle   4 NSaved=   4.
 NSaved= 4 IEnMin= 4 EnMin= -1196.14320614909     IErMin= 4 ErrMin= 9.28D-04
 ErrMax= 9.28D-04  0.00D+00 EMaxC= 1.00D-01 BMatC= 1.51D-04 BMatP= 2.25D-03
 IDIUse=3 WtCom= 9.91D-01 WtEn= 9.28D-03
 Coeff-Com: -0.644D-01 0.135D+00 0.327D+00 0.602D+00
 Coeff-En:   0.000D+00 0.000D+00 0.000D+00 0.100D+01
 Coeff:     -0.638D-01 0.134D+00 0.324D+00 0.606D+00
 Gap=     0.357 Goal=   None    Shift=    0.000
 RMSDP=1.27D-04 MaxDP=2.11D-03 DE=-1.28D-03 OVMax= 2.64D-03

 Cycle   5  Pass 1  IDiag  1:
 E= -1196.14332117053     Delta-E=       -0.000115021437 Rises=F Damp=F
 DIIS: error= 2.94D-04 at cycle   5 NSaved=   5.
 NSaved= 5 IEnMin= 5 EnMin= -1196.14332117053     IErMin= 5 ErrMin= 2.94D-04
 ErrMax= 2.94D-04  0.00D+00 EMaxC= 1.00D-01 BMatC= 7.69D-06 BMatP= 1.51D-04
 IDIUse=3 WtCom= 9.97D-01 WtEn= 2.94D-03
 Coeff-Com: -0.629D-02 0.848D-02 0.432D-01 0.222D+00 0.732D+00
 Coeff-En:   0.000D+00 0.000D+00 0.000D+00 0.000D+00 0.100D+01
 Coeff:     -0.627D-02 0.845D-02 0.431D-01 0.222D+00 0.733D+00
 Gap=     0.357 Goal=   None    Shift=    0.000
 RMSDP=3.74D-05 MaxDP=4.26D-04 DE=-1.15D-04 OVMax= 6.87D-04

 Cycle   6  Pass 1  IDiag  1:
 E= -1196.14332840714     Delta-E=       -0.000007236615 Rises=F Damp=F
 DIIS: error= 4.82D-05 at cycle   6 NSaved=   6.
 NSaved= 6 IEnMin= 6 EnMin= -1196.14332840714     IErMin= 6 ErrMin= 4.82D-05
 ErrMax= 4.82D-05  0.00D+00 EMaxC= 1.00D-01 BMatC= 1.68D-07 BMatP= 7.69D-06
 IDIUse=1 WtCom= 1.00D+00 WtEn= 0.00D+00
 Coeff-Com:  0.390D-02-0.861D-02-0.175D-01-0.137D-02 0.980D-01 0.926D+00
 Coeff:      0.390D-02-0.861D-02-0.175D-01-0.137D-02 0.980D-01 0.926D+00
 Gap=     0.357 Goal=   None    Shift=    0.000
 RMSDP=8.67D-06 MaxDP=2.10D-04 DE=-7.24D-06 OVMax= 2.36D-04

 Cycle   7  Pass 1  IDiag  1:
 E= -1196.14332868280     Delta-E=       -0.000000275654 Rises=F Damp=F
 DIIS: error= 8.44D-06 at cycle   7 NSaved=   7.
 NSaved= 7 IEnMin= 7 EnMin= -1196.14332868280     IErMin= 7 ErrMin= 8.44D-06
 ErrMax= 8.44D-06  0.00D+00 EMaxC= 1.00D-01 BMatC= 1.04D-08 BMatP= 1.68D-07
 IDIUse=1 WtCom= 1.00D+00 WtEn= 0.00D+00
 Coeff-Com:  0.907D-03-0.182D-02-0.532D-02-0.108D-01-0.253D-01 0.162D+00
 Coeff-Com:  0.881D+00
 Coeff:      0.907D-03-0.182D-02-0.532D-02-0.108D-01-0.253D-01 0.162D+00
 Coeff:      0.881D+00
 Gap=     0.357 Goal=   None    Shift=    0.000
 RMSDP=2.10D-06 MaxDP=3.26D-05 DE=-2.76D-07 OVMax= 4.56D-05

 Cycle   8  Pass 1  IDiag  1:
 E= -1196.14332869873     Delta-E=       -0.000000015935 Rises=F Damp=F
 DIIS: error= 1.62D-06 at cycle   8 NSaved=   8.
 NSaved= 8 IEnMin= 8 EnMin= -1196.14332869873     IErMin= 8 ErrMin= 1.62D-06
 ErrMax= 1.62D-06  0.00D+00 EMaxC= 1.00D-01 BMatC= 2.91D-10 BMatP= 1.04D-08
 IDIUse=1 WtCom= 1.00D+00 WtEn= 0.00D+00
 Coeff-Com: -0.143D-03 0.324D-03 0.604D-03-0.338D-03-0.166D-02-0.334D-01
 Coeff-Com:  0.438D-03 0.103D+01
 Coeff:     -0.143D-03 0.324D-03 0.604D-03-0.338D-03-0.166D-02-0.334D-01
 Coeff:      0.438D-03 0.103D+01
 Gap=     0.357 Goal=   None    Shift=    0.000
 RMSDP=4.08D-07 MaxDP=5.54D-06 DE=-1.59D-08 OVMax= 1.08D-05

 Cycle   9  Pass 1  IDiag  1:
 E= -1196.14332869927     Delta-E=       -0.000000000544 Rises=F Damp=F
 DIIS: error= 3.09D-07 at cycle   9 NSaved=   9.
 NSaved= 9 IEnMin= 9 EnMin= -1196.14332869927     IErMin= 9 ErrMin= 3.09D-07
 ErrMax= 3.09D-07  0.00D+00 EMaxC= 1.00D-01 BMatC= 1.06D-11 BMatP= 2.91D-10
 IDIUse=1 WtCom= 1.00D+00 WtEn= 0.00D+00
 Coeff-Com: -0.491D-04 0.101D-03 0.271D-03 0.417D-03 0.122D-02-0.103D-01
 Coeff-Com: -0.365D-01 0.117D+00 0.927D+00
 Coeff:     -0.491D-04 0.101D-03 0.271D-03 0.417D-03 0.122D-02-0.103D-01
 Coeff:     -0.365D-01 0.117D+00 0.927D+00
 Gap=     0.357 Goal=   None    Shift=    0.000
 RMSDP=9.84D-08 MaxDP=1.77D-06 DE=-5.44D-10 OVMax= 2.35D-06

 Cycle  10  Pass 1  IDiag  1:
 E= -1196.14332869930     Delta-E=       -0.000000000026 Rises=F Damp=F
 DIIS: error= 8.37D-08 at cycle  10 NSaved=  10.
 NSaved=10 IEnMin=10 EnMin= -1196.14332869930     IErMin=10 ErrMin= 8.37D-08
 ErrMax= 8.37D-08  0.00D+00 EMaxC= 1.00D-01 BMatC= 6.81D-13 BMatP= 1.06D-11
 IDIUse=1 WtCom= 1.00D+00 WtEn= 0.00D+00
 Coeff-Com:  0.230D-05-0.608D-05 0.620D-06 0.645D-04 0.200D-03 0.326D-03
 Coeff-Com: -0.430D-02-0.393D-01 0.120D+00 0.923D+00
 Coeff:      0.230D-05-0.608D-05 0.620D-06 0.645D-04 0.200D-03 0.326D-03
 Coeff:     -0.430D-02-0.393D-01 0.120D+00 0.923D+00
 Gap=     0.357 Goal=   None    Shift=    0.000
 RMSDP=2.06D-08 MaxDP=3.57D-07 DE=-2.57D-11 OVMax= 4.75D-07

 Cycle  11  Pass 1  IDiag  1:
 E= -1196.14332869930     Delta-E=        0.000000000001 Rises=F Damp=F
 DIIS: error= 3.15D-08 at cycle  11 NSaved=  11.
 NSaved=11 IEnMin=10 EnMin= -1196.14332869930     IErMin=11 ErrMin= 3.15D-08
 ErrMax= 3.15D-08  0.00D+00 EMaxC= 1.00D-01 BMatC= 1.11D-13 BMatP= 6.81D-13
 IDIUse=1 WtCom= 1.00D+00 WtEn= 0.00D+00
 Coeff-Com:  0.291D-05-0.653D-05-0.104D-04 0.997D-05 0.329D-04 0.543D-03
 Coeff-Com: -0.365D-03-0.210D-01 0.172D-01 0.356D+00 0.648D+00
 Coeff:      0.291D-05-0.653D-05-0.104D-04 0.997D-05 0.329D-04 0.543D-03
 Coeff:     -0.365D-03-0.210D-01 0.172D-01 0.356D+00 0.648D+00
 Gap=     0.357 Goal=   None    Shift=    0.000
 RMSDP=5.14D-09 MaxDP=1.19D-07 DE= 9.09D-13 OVMax= 1.75D-07

 Error on total polarization charges =  0.00398
 SCF Done:  E(RM052X) =  -1196.14332870     A.U. after   11 cycles
            NFock= 11  Conv=0.51D-08     -V/T= 2.0040
 KE= 1.191369876567D+03 PE=-3.540442525611D+03 EE= 8.020788537991D+02
 SMD-CDS (non-electrostatic) energy       (kcal/mol) =       3.78
 (included in total energy above)
 Leave Link  502 at Thu Jul 10 14:46:29 2025, MaxMem=  2684354560 cpu:              70.5 elap:               4.0
 (Enter /apps/gaussian/g16c01/g16/l601.exe)
 Copying SCF densities to generalized density rwf, IOpCl= 0 IROHF=0.

 **********************************************************************

            Population analysis using the SCF Density.

 **********************************************************************

 Orbital symmetries:
       Occupied  (A) (A) (A) (A) (A) (A) (A) (A) (A) (A) (A) (A)
                 (A) (A) (A) (A) (A) (A) (A) (A) (A) (A) (A) (A)
                 (A) (A) (A) (A) (A) (A) (A) (A)
       Virtual   (A) (A) (A) (A) (A) (A) (A) (A) (A) (A) (A) (A)
                 (A) (A) (A) (A) (A) (A) (A) (A) (A) (A) (A) (A)
                 (A) (A) (A) (A) (A) (A) (A) (A) (A) (A) (A) (A)
                 (A) (A) (A) (A) (A) (A) (A) (A) (A) (A) (A) (A)
                 (A) (A) (A) (A) (A) (A) (A) (A) (A) (A) (A) (A)
                 (A) (A) (A) (A) (A) (A)
 The electronic state is 1-A.
 Alpha  occ. eigenvalues -- -102.80781-102.80778 -25.35376 -25.35370 -10.74515
 Alpha  occ. eigenvalues --  -10.74398  -9.85338  -9.85335  -7.57974  -7.57970
 Alpha  occ. eigenvalues --   -7.57299  -7.57295  -7.57293  -7.57290  -1.40961
 Alpha  occ. eigenvalues --   -1.39229  -1.03333  -0.98842  -0.87146  -0.72080
 Alpha  occ. eigenvalues --   -0.67883  -0.64106  -0.62083  -0.58585  -0.58172
 Alpha  occ. eigenvalues --   -0.52793  -0.49435  -0.46104  -0.43678  -0.43102
 Alpha  occ. eigenvalues --   -0.40776  -0.31550
 Alpha virt. eigenvalues --    0.04166   0.05224   0.08073   0.13353   0.28894
 Alpha virt. eigenvalues --    0.31734   0.38103   0.41724   0.43549   0.45160
 Alpha virt. eigenvalues --    0.46534   0.50667   0.52451   0.54400   0.58037
 Alpha virt. eigenvalues --    0.59169   0.60788   0.65207   0.70873   0.85930
 Alpha virt. eigenvalues --    0.86703   0.89237   0.90433   0.90436   0.90591
 Alpha virt. eigenvalues --    0.92300   0.98125   1.03374   1.06543   1.07224
 Alpha virt. eigenvalues --    1.15817   1.20011   1.20926   1.24044   1.36777
 Alpha virt. eigenvalues --    1.39679   1.41885   1.43334   1.52579   1.55153
 Alpha virt. eigenvalues --    1.63698   1.73751   1.81527   1.83855   1.87826
 Alpha virt. eigenvalues --    1.88775   1.92450   1.97415   2.06159   2.13113
 Alpha virt. eigenvalues --    2.15781   2.32637   2.34172   2.37446   2.49103
 Alpha virt. eigenvalues --    2.64713   2.70858   2.95454   3.03554   3.18039
 Alpha virt. eigenvalues --    4.03624   4.12904   4.22105   4.41716   4.43550
 Alpha virt. eigenvalues --    5.26175
          Condensed to atoms (all electrons):
               1          2          3          4          5          6
     1  C    4.964040   0.448964   0.275896   0.270822  -0.046364  -0.081746
     2  C    0.448964   4.964173  -0.081755  -0.046366   0.270715   0.275902
     3  Cl   0.275896  -0.081755  16.759292  -0.040038   0.001317   0.005615
     4  F    0.270822  -0.046366  -0.040038   9.062554  -0.000212   0.001316
     5  F   -0.046364   0.270715   0.001317  -0.000212   9.062800  -0.040028
     6  Cl  -0.081746   0.275902   0.005615   0.001316  -0.040028  16.759069
 Mulliken charges:
               1
     1  C    0.168389
     2  C    0.168369
     3  Cl   0.079674
     4  F   -0.248076
     5  F   -0.248228
     6  Cl   0.079872
 Sum of Mulliken charges =  -0.00000
 Mulliken charges with hydrogens summed into heavy atoms:
               1
     1  C    0.168389
     2  C    0.168369
     3  Cl   0.079674
     4  F   -0.248076
     5  F   -0.248228
     6  Cl   0.079872
 Electronic spatial extent (au):  <R**2>=            853.1317
 Charge=             -0.0000 electrons
 Dipole moment (field-independent basis, Debye):
    X=             -0.0004    Y=             -0.8300    Z=              0.0002  Tot=              0.8300
 Quadrupole moment (field-independent basis, Debye-Ang):
   XX=            -45.6860   YY=            -45.8701   ZZ=            -45.0850
   XY=              0.0030   XZ=              0.0001   YZ=              0.0004
 Traceless Quadrupole moment (field-independent basis, Debye-Ang):
   XX=             -0.1390   YY=             -0.3231   ZZ=              0.4621
   XY=              0.0030   XZ=              0.0001   YZ=              0.0004
 Octapole moment (field-independent basis, Debye-Ang**2):
  XXX=             -0.0048  YYY=              8.4230  ZZZ=             -0.0017  XYY=              0.0006
  XXY=             -1.4670  XXZ=             -0.0010  XZZ=             -0.0006  YZZ=              6.2734
  YYZ=             -0.0010  XYZ=              0.0006
 Hexadecapole moment (field-independent basis, Debye-Ang**3):
 XXXX=           -575.0328 YYYY=           -324.3212 ZZZZ=            -43.2828 XXXY=              0.0112
 XXXZ=              0.0208 YYYX=              0.0081 YYYZ=              0.0007 ZZZX=              0.0217
 ZZZY=             -0.0006 XXYY=           -141.8556 XXZZ=           -105.3407 YYZZ=            -62.7985
 XXYZ=              0.0019 YYXZ=              0.0065 ZZXY=              0.0015
 N-N= 3.508504665458D+02 E-N=-3.540442525290D+03  KE= 1.191369876567D+03
 No NMR shielding tensors so no spin-rotation constants.
 Leave Link  601 at Thu Jul 10 14:46:30 2025, MaxMem=  2684354560 cpu:              10.8 elap:               0.9
 (Enter /apps/gaussian/g16c01/g16/l9999.exe)
 Unable to Open any file for archive entry.
 1\1\GINC-GADI-CPU-CLX-2688\SP\RM052X\6-31G(d)\C2Cl2F2\YR9300\10-Jul-20
 25\0\\#P M052X/6-31G* scrf(SMD,solvent=water)\\Cl2F2_iso1_wat_M05-2x.g
 jf\\0,1\C,0,0.664725,0.416411,0.000085\C,0,-0.664775,0.416208,0.000198
 \Cl,0,1.664522,-0.978329,-0.000145\F,0,1.332037,1.570384,-0.000184\F,0
 ,-1.332018,1.57041,0.000064\Cl,0,-1.664514,-0.978311,0.000108\\Version
 =ES64L-G16RevC.01\State=1-A\HF=-1196.1433287\RMSD=5.144e-09\Dipole=-0.
 0001619,-0.3265541,0.0000719\Quadrupole=-0.1033392,-0.2401882,0.343527
 4,0.0022273,0.0000612,0.0003286\PG=C01 [X(C2Cl2F2)]\\@
 The archive entry for this job was punched.


 I HAVE NOT FAILED, I HAVE ONLY DISCOVERED 10,000
 WAYS THAT DIDN'T WORK.  -- THOMAS A. EDISON
 Job cpu time:       0 days  0 hours  1 minutes 39.5 seconds.
 Elapsed time:       0 days  0 hours  0 minutes  6.6 seconds.
 File lengths (MBytes):  RWF=     22 Int=      0 D2E=      0 Chk=      2 Scr=      1
 Normal termination of Gaussian 16 at Thu Jul 10 14:46:30 2025.
