 Entering Gaussian System, Link 0=g16
 Initial command:
 /apps/gaussian/g16c01/g16/l1.exe "/jobfs/145005351.gadi-pbs/Gau-3744376.inp" -scrdir="/jobfs/145005351.gadi-pbs/"
 Entering Link 1 = /apps/gaussian/g16c01/g16/l1.exe PID=   3744377.
  
 Copyright (c) 1988-2019, Gaussian, Inc.  All Rights Reserved.
  
 This is part of the Gaussian(R) 16 program.  It is based on
 the Gaussian(R) 09 system (copyright 2009, Gaussian, Inc.),
 the Gaussian(R) 03 system (copyright 2003, Gaussian, Inc.),
 the Gaussian(R) 98 system (copyright 1998, Gaussian, Inc.),
 the Gaussian(R) 94 system (copyright 1995, Gaussian, Inc.),
 the Gaussian 92(TM) system (copyright 1992, Gaussian, Inc.),
 the Gaussian 90(TM) system (copyright 1990, Gaussian, Inc.),
 the Gaussian 88(TM) system (copyright 1988, Gaussian, Inc.),
 the Gaussian 86(TM) system (copyright 1986, Carnegie Mellon
 University), and the Gaussian 82(TM) system (copyright 1983,
 Carnegie Mellon University). Gaussian is a federally registered
 trademark of Gaussian, Inc.
  
 This software contains proprietary and confidential information,
 including trade secrets, belonging to Gaussian, Inc.
  
 This software is provided under written license and may be
 used, copied, transmitted, or stored only in accord with that
 written license.
  
 The following legend is applicable only to US Government
 contracts under FAR:
  
                    RESTRICTED RIGHTS LEGEND
  
 Use, reproduction and disclosure by the US Government is
 subject to restrictions as set forth in subparagraphs (a)
 and (c) of the Commercial Computer Software - Restricted
 Rights clause in FAR 52.227-19.
  
 Gaussian, Inc.
 340 Quinnipiac St., Bldg. 40, Wallingford CT 06492
  
  
 ---------------------------------------------------------------
 Warning -- This program may not be used in any manner that
 competes with the business of Gaussian, Inc. or will provide
 assistance to any competitor of Gaussian, Inc.  The licensee
 of this program is prohibited from giving any competitor of
 Gaussian, Inc. access to this program.  By using this program,
 the user acknowledges that Gaussian, Inc. is engaged in the
 business of creating and licensing software in the field of
 computational chemistry and represents and warrants to the
 licensee that it is not a competitor of Gaussian, Inc. and that
 it will not use this program in any manner prohibited above.
 ---------------------------------------------------------------
  

 Cite this work as:
 Gaussian 16, Revision C.01,
 M. J. Frisch, G. W. Trucks, H. B. Schlegel, G. E. Scuseria, 
 M. A. Robb, J. R. Cheeseman, G. Scalmani, V. Barone, 
 G. A. Petersson, H. Nakatsuji, X. Li, M. Caricato, A. V. Marenich, 
 J. Bloino, B. G. Janesko, R. Gomperts, B. Mennucci, H. P. Hratchian, 
 J. V. Ortiz, A. F. Izmaylov, J. L. Sonnenberg, D. Williams-Young, 
 F. Ding, F. Lipparini, F. Egidi, J. Goings, B. Peng, A. Petrone, 
 T. Henderson, D. Ranasinghe, V. G. Zakrzewski, J. Gao, N. Rega, 
 G. Zheng, W. Liang, M. Hada, M. Ehara, K. Toyota, R. Fukuda, 
 J. Hasegawa, M. Ishida, T. Nakajima, Y. Honda, O. Kitao, H. Nakai, 
 T. Vreven, K. Throssell, J. A. Montgomery, Jr., J. E. Peralta, 
 F. Ogliaro, M. J. Bearpark, J. J. Heyd, E. N. Brothers, K. N. Kudin, 
 V. N. Staroverov, T. A. Keith, R. Kobayashi, J. Normand, 
 K. Raghavachari, A. P. Rendell, J. C. Burant, S. S. Iyengar, 
 J. Tomasi, M. Cossi, J. M. Millam, M. Klene, C. Adamo, R. Cammi, 
 J. W. Ochterski, R. L. Martin, K. Morokuma, O. Farkas, 
 J. B. Foresman, and D. J. Fox, Gaussian, Inc., Wallingford CT, 2019.
 
 ******************************************
 Gaussian 16:  ES64L-G16RevC.01  3-Jul-2019
                10-Jul-2025 
 ******************************************
 %chk=Cl2F2_iso1_oct_M05-2x.chk
 %mem=20GB
 %nprocshared=20
 Will use up to   20 processors via shared memory.
 -------------------------------------------
 #P M052X/6-31G* scrf(SMD,solvent=n-octanol)
 -------------------------------------------
 1/38=1,172=1/1;
 2/12=2,17=6,18=5,40=1/2;
 3/5=1,6=6,7=1,11=2,25=1,30=1,70=32201,72=25,74=-38/1,2,3;
 4//1;
 5/5=2,38=5,53=25/2;
 6/7=2,8=2,9=2,10=2,28=1/1;
 99/5=1,9=1/99;
 Leave Link    1 at Thu Jul 10 13:56:55 2025, MaxMem=  2684354560 cpu:               1.3 elap:               0.1
 (Enter /apps/gaussian/g16c01/g16/l101.exe)
 ---------------------
 Cl2F2_iso1_oct_M05-2x
 ---------------------
 Symbolic Z-matrix:
 Charge =  0 Multiplicity = 1
 C                     0.66467   0.417    -0.00037 
 C                    -0.66493   0.41655  -0.00009 
 Cl                    1.66457  -0.97856  -0.00004 
 F                     1.33174   1.57071  -0.00007 
 F                    -1.33192   1.57053   0.00016 
 Cl                   -1.66438  -0.97864   0.00015 
 
 ITRead=  0  0  0  0  0  0
 MicOpt= -1 -1 -1 -1 -1 -1
 NAtoms=      6 NQM=        6 NQMF=       0 NMMI=      0 NMMIF=      0
                NMic=       0 NMicF=      0.
                    Isotopes and Nuclear Properties:
 (Nuclear quadrupole moments (NQMom) in fm**2, nuclear magnetic moments (NMagM)
  in nuclear magnetons)

  Atom         1           2           3           4           5           6
 IAtWgt=          12          12          35          19          19          35
 AtmWgt=  12.0000000  12.0000000  34.9688527  18.9984033  18.9984033  34.9688527
 NucSpn=           0           0           3           1           1           3
 AtZEff=  -0.0000000  -0.0000000  -0.0000000  -0.0000000  -0.0000000  -0.0000000
 NQMom=    0.0000000   0.0000000  -8.1650000   0.0000000   0.0000000  -8.1650000
 NMagM=    0.0000000   0.0000000   0.8218740   2.6288670   2.6288670   0.8218740
 AtZNuc=   6.0000000   6.0000000  17.0000000   9.0000000   9.0000000  17.0000000
 Leave Link  101 at Thu Jul 10 13:56:55 2025, MaxMem=  2684354560 cpu:               3.8 elap:               0.2
 (Enter /apps/gaussian/g16c01/g16/l202.exe)
                          Input orientation:                          
 ---------------------------------------------------------------------
 Center     Atomic      Atomic             Coordinates (Angstroms)
 Number     Number       Type             X           Y           Z
 ---------------------------------------------------------------------
      1          6           0        0.664671    0.416996   -0.000370
      2          6           0       -0.664928    0.416545   -0.000088
      3         17           0        1.664567   -0.978557   -0.000040
      4          9           0        1.331739    1.570705   -0.000073
      5          9           0       -1.331919    1.570531    0.000163
      6         17           0       -1.664381   -0.978641    0.000154
 ---------------------------------------------------------------------
                    Distance matrix (angstroms):
                    1          2          3          4          5
     1  C    0.000000
     2  C    1.329599   0.000000
     3  Cl   1.716788   2.715300   0.000000
     4  F    1.332676   2.306245   2.570897   0.000000
     5  F    2.305865   1.332877   3.934054   2.663658   0.000000
     6  Cl   2.715195   1.716231   3.328948   3.933942   2.570760
                    6
     6  Cl   0.000000
 Stoichiometry    C2Cl2F2
 Framework group  C1[X(C2Cl2F2)]
 Deg. of freedom    12
 Full point group                 C1      NOp   1
 Largest Abelian subgroup         C1      NOp   1
 Largest concise Abelian subgroup C1      NOp   1
                         Standard orientation:                         
 ---------------------------------------------------------------------
 Center     Atomic      Atomic             Coordinates (Angstroms)
 Number     Number       Type             X           Y           Z
 ---------------------------------------------------------------------
      1          6           0       -0.664671    0.416996    0.000370
      2          6           0        0.664928    0.416545    0.000088
      3         17           0       -1.664567   -0.978556    0.000040
      4          9           0       -1.331738    1.570705    0.000073
      5          9           0        1.331920    1.570530   -0.000163
      6         17           0        1.664381   -0.978642   -0.000154
 ---------------------------------------------------------------------
 Rotational constants (GHZ):           3.0654031           1.8596169           1.1574523
 Leave Link  202 at Thu Jul 10 13:56:55 2025, MaxMem=  2684354560 cpu:               0.8 elap:               0.1
 (Enter /apps/gaussian/g16c01/g16/l301.exe)
 Standard basis: 6-31G(d) (6D, 7F)
 Ernie: Thresh=  0.10000D-02 Tol=  0.10000D-05 Strict=F.
 There are    98 symmetry adapted cartesian basis functions of A   symmetry.
 There are    98 symmetry adapted basis functions of A   symmetry.
    98 basis functions,   216 primitive gaussians,    98 cartesian basis functions
    32 alpha electrons       32 beta electrons
       nuclear repulsion energy       350.8205537353 Hartrees.
 IExCor= 3428 DFT=T Ex+Corr=M052X ExCW=0 ScaHFX=  0.560000
 ScaDFX=  0.440000  0.440000  1.000000  1.000000 ScalE2=  1.000000  1.000000
 IRadAn=      5 IRanWt=     -1 IRanGd=            0 ICorTp=0 IEmpDi=  4
 NAtoms=    6 NActive=    6 NUniq=    6 SFac= 1.00D+00 NAtFMM=   60 NAOKFM=F Big=F
 Integral buffers will be    131072 words long.
 Raffenetti 2 integral format.
 Two-electron integral symmetry is turned on.
 ------------------------------------------------------------------------------
 Polarizable Continuum Model (PCM)
 =================================
 Model                : PCM.
 Atomic radii         : SMD-Coulomb.
 Polarization charges : Total charges.
 Charge compensation  : None.
 Solution method      : On-the-fly selection.
 Cavity type          : VdW (van der Waals Surface) (Alpha=1.000).
 Cavity algorithm     : GePol (No added spheres)
                        Default sphere list used, NSphG=    6.
                        Lebedev-Laikov grids with approx.  5.0 points / Ang**2.
                        Smoothing algorithm: York/Karplus (Gamma=1.0000).
                        Polarization charges: spherical gaussians, with
                                              point-specific exponents (IZeta= 3).
                        Self-potential: point-specific (ISelfS= 7).
                        Self-field    : sphere-specific E.n sum rule (ISelfD= 2).
 Solvent              : n-Octanol, Eps=   9.862900 Eps(inf)=   2.043470
 ------------------------------------------------------------------------------
 Spheres list:
 ISph  on   Nord     Re0    Alpha      Xe            Ye            Ze
    1   C      1    1.8500  1.000     -0.664671      0.416996      0.000370
    2   C      2    1.8500  1.000      0.664928      0.416545      0.000088
    3  Cl      3    2.3800  1.000     -1.664567     -0.978556      0.000040
    4   F      4    1.7300  1.000     -1.331738      1.570705      0.000073
    5   F      5    1.7300  1.000      1.331920      1.570530     -0.000163
    6  Cl      6    2.3800  1.000      1.664381     -0.978642     -0.000154
 ------------------------------------------------------------------------------
 GePol: Number of generator spheres                  =       6
 GePol: Total number of spheres                      =       6
 GePol: Number of exposed spheres                    =       6 (100.00%)
 GePol: Number of points                             =     954
 GePol: Average weight of points                     =       0.15
 GePol: Minimum weight of points                     =   0.83D-04
 GePol: Maximum weight of points                     =    0.21501
 GePol: Number of points with low weight             =      12
 GePol: Fraction of low-weight points (<1% of avg)   =       1.26%
 GePol: Cavity surface area                          =    146.932 Ang**2
 GePol: Cavity volume                                =    136.752 Ang**3
 ------------------------------------------------------------------------------
 Atomic radii for non-electrostatic terms: SMD-CDS.
 ------------------------------------------------------------------------------
 PCM non-electrostatic energy =         0.0001854864 Hartrees.
 Nuclear repulsion after PCM non-electrostatic terms =      350.8207392217 Hartrees.
 Leave Link  301 at Thu Jul 10 13:56:55 2025, MaxMem=  2684354560 cpu:               2.5 elap:               0.1
 (Enter /apps/gaussian/g16c01/g16/l302.exe)
 NPDir=0 NMtPBC=     1 NCelOv=     1 NCel=       1 NClECP=     1 NCelD=      1
         NCelK=      1 NCelE2=     1 NClLst=     1 CellRange=     0.0.
 One-electron integrals computed using PRISM.
 One-electron integral symmetry used in STVInt
 NBasis=    98 RedAO= T EigKep=  2.65D-03  NBF=    98
 NBsUse=    98 1.00D-06 EigRej= -1.00D+00 NBFU=    98
 Precomputing XC quadrature grid using
 IXCGrd= 4 IRadAn=           5 IRanWt=          -1 IRanGd=           0 AccXCQ= 0.00D+00.
 Generated NRdTot=       0 NPtTot=           0 NUsed=           0 NTot=          32
 NSgBfM=    97    97    97    97    97 MxSgAt=     6 MxSgA2=     6.
 Leave Link  302 at Thu Jul 10 13:56:56 2025, MaxMem=  2684354560 cpu:               3.1 elap:               0.2
 (Enter /apps/gaussian/g16c01/g16/l303.exe)
 DipDrv:  MaxL=1.
 Leave Link  303 at Thu Jul 10 13:56:56 2025, MaxMem=  2684354560 cpu:               0.6 elap:               0.1
 (Enter /apps/gaussian/g16c01/g16/l401.exe)
 ExpMin= 1.43D-01 ExpMax= 2.52D+04 ExpMxC= 3.78D+03 IAcc=3 IRadAn=         5 AccDes= 0.00D+00
 Harris functional with IExCor= 1009 and IRadAn=       5 diagonalized for initial guess.
 HarFok:  IExCor= 1009 AccDes= 0.00D+00 IRadAn=         5 IDoV= 1 UseB2=F ITyADJ=14
 ICtDFT=  3500011 ScaDFX=  1.000000  1.000000  1.000000  1.000000
 FoFCou: FMM=F IPFlag=           0 FMFlag=      100000 FMFlg1=           0
         NFxFlg=           0 DoJE=T BraDBF=F KetDBF=T FulRan=T
         wScrn=  0.000000 ICntrl=       500 IOpCl=  0 I1Cent=   200000004 NGrid=           0
         NMat0=    1 NMatS0=      1 NMatT0=    0 NMatD0=    1 NMtDS0=    0 NMtDT0=    0
 Petite list used in FoFCou.
 Harris En= -1195.41240802188    
 JPrj=0 DoOrth=F DoCkMO=F.
 Leave Link  401 at Thu Jul 10 13:56:56 2025, MaxMem=  2684354560 cpu:               4.0 elap:               0.2
 (Enter /apps/gaussian/g16c01/g16/l502.exe)
 Keep R1 ints in memory in canonical form, NReq=30232002.
 FoFCou: FMM=F IPFlag=           0 FMFlag=           0 FMFlg1=           0
         NFxFlg=           0 DoJE=F BraDBF=F KetDBF=F FulRan=T
         wScrn=  0.000000 ICntrl=       600 IOpCl=  0 I1Cent=           0 NGrid=           0
         NMat0=    1 NMatS0=   4851 NMatT0=    0 NMatD0=    1 NMtDS0=    0 NMtDT0=    0
 Symmetry not used in FoFCou.
 Two-electron integral symmetry not used.
 Closed shell SCF:
 Using DIIS extrapolation, IDIIS=  1040.
 NGot=  2684354560 LenX=  2672563676 LenY=  2672553631
 Requested convergence on RMS density matrix=1.00D-08 within 128 cycles.
 Requested convergence on MAX density matrix=1.00D-06.
 Requested convergence on             energy=1.00D-06.
 No special actions if energy rises.

 Cycle   1  Pass 1  IDiag  1:
 Inv3:  Mode=1 IEnd=     2730348.
 Iteration    1 A*A^-1 deviation from unit magnitude is 2.66D-15 for    934.
 Iteration    1 A*A^-1 deviation from orthogonality  is 1.21D-15 for    952    684.
 Iteration    1 A^-1*A deviation from unit magnitude is 2.89D-15 for    934.
 Iteration    1 A^-1*A deviation from orthogonality  is 1.23D-15 for    945    943.
 E= -1196.10822918764    
 DIIS: error= 2.73D-02 at cycle   1 NSaved=   1.
 NSaved= 1 IEnMin= 1 EnMin= -1196.10822918764     IErMin= 1 ErrMin= 2.73D-02
 ErrMax= 2.73D-02  0.00D+00 EMaxC= 1.00D-01 BMatC= 7.95D-02 BMatP= 7.95D-02
 IDIUse=3 WtCom= 7.27D-01 WtEn= 2.73D-01
 Coeff-Com:  0.100D+01
 Coeff-En:   0.100D+01
 Coeff:      0.100D+01
 Gap=     0.372 Goal=   None    Shift=    0.000
 GapD=    0.372 DampG=1.000 DampE=0.500 DampFc=0.5000 IDamp=-1.
 Damping current iteration by 5.00D-01
 RMSDP=3.70D-03 MaxDP=8.50D-02              OVMax= 6.95D-02

 Cycle   2  Pass 1  IDiag  1:
 E= -1196.12875227039     Delta-E=       -0.020523082754 Rises=F Damp=T
 DIIS: error= 1.07D-02 at cycle   2 NSaved=   2.
 NSaved= 2 IEnMin= 2 EnMin= -1196.12875227039     IErMin= 2 ErrMin= 1.07D-02
 ErrMax= 1.07D-02  0.00D+00 EMaxC= 1.00D-01 BMatC= 1.04D-02 BMatP= 7.95D-02
 IDIUse=3 WtCom= 8.93D-01 WtEn= 1.07D-01
 Coeff-Com: -0.244D+00 0.124D+01
 Coeff-En:   0.000D+00 0.100D+01
 Coeff:     -0.218D+00 0.122D+01
 Gap=     0.376 Goal=   None    Shift=    0.000
 RMSDP=1.05D-03 MaxDP=1.21D-02 DE=-2.05D-02 OVMax= 4.07D-02

 Cycle   3  Pass 1  IDiag  1:
 E= -1196.14752824071     Delta-E=       -0.018775970320 Rises=F Damp=F
 DIIS: error= 5.26D-03 at cycle   3 NSaved=   3.
 NSaved= 3 IEnMin= 3 EnMin= -1196.14752824071     IErMin= 3 ErrMin= 5.26D-03
 ErrMax= 5.26D-03  0.00D+00 EMaxC= 1.00D-01 BMatC= 2.30D-03 BMatP= 1.04D-02
 IDIUse=3 WtCom= 9.47D-01 WtEn= 5.26D-02
 Coeff-Com: -0.181D+00 0.436D+00 0.746D+00
 Coeff-En:   0.000D+00 0.000D+00 0.100D+01
 Coeff:     -0.172D+00 0.413D+00 0.759D+00
 Gap=     0.356 Goal=   None    Shift=    0.000
 RMSDP=3.49D-04 MaxDP=7.13D-03 DE=-1.88D-02 OVMax= 6.89D-03

 Cycle   4  Pass 1  IDiag  1:
 E= -1196.14883780777     Delta-E=       -0.001309567056 Rises=F Damp=F
 DIIS: error= 9.29D-04 at cycle   4 NSaved=   4.
 NSaved= 4 IEnMin= 4 EnMin= -1196.14883780777     IErMin= 4 ErrMin= 9.29D-04
 ErrMax= 9.29D-04  0.00D+00 EMaxC= 1.00D-01 BMatC= 1.51D-04 BMatP= 2.30D-03
 IDIUse=3 WtCom= 9.91D-01 WtEn= 9.29D-03
 Coeff-Com: -0.645D-01 0.136D+00 0.326D+00 0.603D+00
 Coeff-En:   0.000D+00 0.000D+00 0.000D+00 0.100D+01
 Coeff:     -0.639D-01 0.134D+00 0.323D+00 0.607D+00
 Gap=     0.357 Goal=   None    Shift=    0.000
 RMSDP=1.27D-04 MaxDP=2.11D-03 DE=-1.31D-03 OVMax= 2.66D-03

 Cycle   5  Pass 1  IDiag  1:
 E= -1196.14895228109     Delta-E=       -0.000114473325 Rises=F Damp=F
 DIIS: error= 3.03D-04 at cycle   5 NSaved=   5.
 NSaved= 5 IEnMin= 5 EnMin= -1196.14895228109     IErMin= 5 ErrMin= 3.03D-04
 ErrMax= 3.03D-04  0.00D+00 EMaxC= 1.00D-01 BMatC= 8.11D-06 BMatP= 1.51D-04
 IDIUse=3 WtCom= 9.97D-01 WtEn= 3.03D-03
 Coeff-Com: -0.681D-02 0.953D-02 0.454D-01 0.228D+00 0.724D+00
 Coeff-En:   0.000D+00 0.000D+00 0.000D+00 0.000D+00 0.100D+01
 Coeff:     -0.679D-02 0.950D-02 0.453D-01 0.227D+00 0.725D+00
 Gap=     0.357 Goal=   None    Shift=    0.000
 RMSDP=3.88D-05 MaxDP=4.58D-04 DE=-1.14D-04 OVMax= 7.07D-04

 Cycle   6  Pass 1  IDiag  1:
 E= -1196.14895987366     Delta-E=       -0.000007592571 Rises=F Damp=F
 DIIS: error= 4.94D-05 at cycle   6 NSaved=   6.
 NSaved= 6 IEnMin= 6 EnMin= -1196.14895987366     IErMin= 6 ErrMin= 4.94D-05
 ErrMax= 4.94D-05  0.00D+00 EMaxC= 1.00D-01 BMatC= 1.77D-07 BMatP= 8.11D-06
 IDIUse=1 WtCom= 1.00D+00 WtEn= 0.00D+00
 Coeff-Com:  0.391D-02-0.867D-02-0.175D-01-0.612D-03 0.989D-01 0.924D+00
 Coeff:      0.391D-02-0.867D-02-0.175D-01-0.612D-03 0.989D-01 0.924D+00
 Gap=     0.357 Goal=   None    Shift=    0.000
 RMSDP=8.85D-06 MaxDP=2.15D-04 DE=-7.59D-06 OVMax= 2.39D-04

 Cycle   7  Pass 1  IDiag  1:
 E= -1196.14896016264     Delta-E=       -0.000000288973 Rises=F Damp=F
 DIIS: error= 8.64D-06 at cycle   7 NSaved=   7.
 NSaved= 7 IEnMin= 7 EnMin= -1196.14896016264     IErMin= 7 ErrMin= 8.64D-06
 ErrMax= 8.64D-06  0.00D+00 EMaxC= 1.00D-01 BMatC= 1.09D-08 BMatP= 1.77D-07
 IDIUse=1 WtCom= 1.00D+00 WtEn= 0.00D+00
 Coeff-Com:  0.930D-03-0.187D-02-0.541D-02-0.111D-01-0.254D-01 0.159D+00
 Coeff-Com:  0.883D+00
 Coeff:      0.930D-03-0.187D-02-0.541D-02-0.111D-01-0.254D-01 0.159D+00
 Coeff:      0.883D+00
 Gap=     0.357 Goal=   None    Shift=    0.000
 RMSDP=2.16D-06 MaxDP=3.31D-05 DE=-2.89D-07 OVMax= 4.63D-05

 Cycle   8  Pass 1  IDiag  1:
 E= -1196.14896017929     Delta-E=       -0.000000016650 Rises=F Damp=F
 DIIS: error= 1.64D-06 at cycle   8 NSaved=   8.
 NSaved= 8 IEnMin= 8 EnMin= -1196.14896017929     IErMin= 8 ErrMin= 1.64D-06
 ErrMax= 1.64D-06  0.00D+00 EMaxC= 1.00D-01 BMatC= 3.07D-10 BMatP= 1.09D-08
 IDIUse=1 WtCom= 1.00D+00 WtEn= 0.00D+00
 Coeff-Com: -0.140D-03 0.319D-03 0.587D-03-0.404D-03-0.174D-02-0.326D-01
 Coeff-Com:  0.280D-02 0.103D+01
 Coeff:     -0.140D-03 0.319D-03 0.587D-03-0.404D-03-0.174D-02-0.326D-01
 Coeff:      0.280D-02 0.103D+01
 Gap=     0.357 Goal=   None    Shift=    0.000
 RMSDP=4.16D-07 MaxDP=5.58D-06 DE=-1.67D-08 OVMax= 1.10D-05

 Cycle   9  Pass 1  IDiag  1:
 E= -1196.14896017986     Delta-E=       -0.000000000567 Rises=F Damp=F
 DIIS: error= 3.24D-07 at cycle   9 NSaved=   9.
 NSaved= 9 IEnMin= 9 EnMin= -1196.14896017986     IErMin= 9 ErrMin= 3.24D-07
 ErrMax= 3.24D-07  0.00D+00 EMaxC= 1.00D-01 BMatC= 1.18D-11 BMatP= 3.07D-10
 IDIUse=1 WtCom= 1.00D+00 WtEn= 0.00D+00
 Coeff-Com: -0.516D-04 0.107D-03 0.282D-03 0.423D-03 0.122D-02-0.105D-01
 Coeff-Com: -0.372D-01 0.126D+00 0.920D+00
 Coeff:     -0.516D-04 0.107D-03 0.282D-03 0.423D-03 0.122D-02-0.105D-01
 Coeff:     -0.372D-01 0.126D+00 0.920D+00
 Gap=     0.357 Goal=   None    Shift=    0.000
 RMSDP=1.02D-07 MaxDP=1.84D-06 DE=-5.67D-10 OVMax= 2.41D-06

 Cycle  10  Pass 1  IDiag  1:
 E= -1196.14896017988     Delta-E=       -0.000000000022 Rises=F Damp=F
 DIIS: error= 8.68D-08 at cycle  10 NSaved=  10.
 NSaved=10 IEnMin=10 EnMin= -1196.14896017988     IErMin=10 ErrMin= 8.68D-08
 ErrMax= 8.68D-08  0.00D+00 EMaxC= 1.00D-01 BMatC= 7.47D-13 BMatP= 1.18D-11
 IDIUse=1 WtCom= 1.00D+00 WtEn= 0.00D+00
 Coeff-Com:  0.193D-05-0.535D-05 0.282D-05 0.689D-04 0.204D-03 0.282D-03
 Coeff-Com: -0.455D-02-0.387D-01 0.120D+00 0.922D+00
 Coeff:      0.193D-05-0.535D-05 0.282D-05 0.689D-04 0.204D-03 0.282D-03
 Coeff:     -0.455D-02-0.387D-01 0.120D+00 0.922D+00
 Gap=     0.357 Goal=   None    Shift=    0.000
 RMSDP=2.13D-08 MaxDP=3.70D-07 DE=-2.23D-11 OVMax= 4.90D-07

 Cycle  11  Pass 1  IDiag  1:
 E= -1196.14896017988     Delta-E=        0.000000000000 Rises=F Damp=F
 DIIS: error= 2.89D-08 at cycle  11 NSaved=  11.
 NSaved=11 IEnMin=10 EnMin= -1196.14896017988     IErMin=11 ErrMin= 2.89D-08
 ErrMax= 2.89D-08  0.00D+00 EMaxC= 1.00D-01 BMatC= 1.22D-13 BMatP= 7.47D-13
 IDIUse=1 WtCom= 1.00D+00 WtEn= 0.00D+00
 Coeff-Com:  0.291D-05-0.656D-05-0.101D-04 0.115D-04 0.343D-04 0.541D-03
 Coeff-Com: -0.431D-03-0.213D-01 0.175D-01 0.359D+00 0.644D+00
 Coeff:      0.291D-05-0.656D-05-0.101D-04 0.115D-04 0.343D-04 0.541D-03
 Coeff:     -0.431D-03-0.213D-01 0.175D-01 0.359D+00 0.644D+00
 Gap=     0.357 Goal=   None    Shift=    0.000
 RMSDP=5.26D-09 MaxDP=1.09D-07 DE= 4.55D-13 OVMax= 1.69D-07

 Error on total polarization charges =  0.00402
 SCF Done:  E(RM052X) =  -1196.14896018     A.U. after   11 cycles
            NFock= 11  Conv=0.53D-08     -V/T= 2.0040
 KE= 1.191369648408D+03 PE=-3.540399936499D+03 EE= 8.020605886895D+02
 SMD-CDS (non-electrostatic) energy       (kcal/mol) =       0.12
 (included in total energy above)
 Leave Link  502 at Thu Jul 10 13:57:00 2025, MaxMem=  2684354560 cpu:              68.0 elap:               3.6
 (Enter /apps/gaussian/g16c01/g16/l601.exe)
 Copying SCF densities to generalized density rwf, IOpCl= 0 IROHF=0.

 **********************************************************************

            Population analysis using the SCF Density.

 **********************************************************************

 Orbital symmetries:
       Occupied  (A) (A) (A) (A) (A) (A) (A) (A) (A) (A) (A) (A)
                 (A) (A) (A) (A) (A) (A) (A) (A) (A) (A) (A) (A)
                 (A) (A) (A) (A) (A) (A) (A) (A)
       Virtual   (A) (A) (A) (A) (A) (A) (A) (A) (A) (A) (A) (A)
                 (A) (A) (A) (A) (A) (A) (A) (A) (A) (A) (A) (A)
                 (A) (A) (A) (A) (A) (A) (A) (A) (A) (A) (A) (A)
                 (A) (A) (A) (A) (A) (A) (A) (A) (A) (A) (A) (A)
                 (A) (A) (A) (A) (A) (A) (A) (A) (A) (A) (A) (A)
                 (A) (A) (A) (A) (A) (A)
 The electronic state is 1-A.
 Alpha  occ. eigenvalues -- -102.80817-102.80810 -25.35409 -25.35400 -10.74570
 Alpha  occ. eigenvalues --  -10.74454  -9.85373  -9.85366  -7.58010  -7.58002
 Alpha  occ. eigenvalues --   -7.57333  -7.57328  -7.57326  -7.57321  -1.41004
 Alpha  occ. eigenvalues --   -1.39269  -1.03362  -0.98866  -0.87194  -0.72108
 Alpha  occ. eigenvalues --   -0.67912  -0.64143  -0.62132  -0.58614  -0.58207
 Alpha  occ. eigenvalues --   -0.52815  -0.49457  -0.46137  -0.43707  -0.43133
 Alpha  occ. eigenvalues --   -0.40801  -0.31605
 Alpha virt. eigenvalues --    0.04100   0.05162   0.08005   0.13318   0.28862
 Alpha virt. eigenvalues --    0.31700   0.38065   0.41696   0.43499   0.45115
 Alpha virt. eigenvalues --    0.46519   0.50641   0.52404   0.54355   0.57937
 Alpha virt. eigenvalues --    0.59140   0.60725   0.65118   0.70813   0.85863
 Alpha virt. eigenvalues --    0.86666   0.89189   0.90402   0.90410   0.90559
 Alpha virt. eigenvalues --    0.92252   0.98075   1.03320   1.06499   1.07165
 Alpha virt. eigenvalues --    1.15777   1.19946   1.20914   1.24010   1.36766
 Alpha virt. eigenvalues --    1.39661   1.41887   1.43303   1.52587   1.55076
 Alpha virt. eigenvalues --    1.63654   1.73722   1.81480   1.83826   1.87809
 Alpha virt. eigenvalues --    1.88717   1.92434   1.97384   2.06122   2.13057
 Alpha virt. eigenvalues --    2.15756   2.32582   2.34141   2.37446   2.49099
 Alpha virt. eigenvalues --    2.64698   2.70783   2.95445   3.03561   3.18015
 Alpha virt. eigenvalues --    4.03555   4.12904   4.22069   4.41680   4.43488
 Alpha virt. eigenvalues --    5.26263
          Condensed to atoms (all electrons):
               1          2          3          4          5          6
     1  C    4.966624   0.447848   0.276352   0.271034  -0.046545  -0.081913
     2  C    0.447848   4.966723  -0.081907  -0.046535   0.270881   0.276377
     3  Cl   0.276352  -0.081907  16.758633  -0.040029   0.001318   0.005617
     4  F    0.271034  -0.046535  -0.040029   9.061141  -0.000207   0.001316
     5  F   -0.046545   0.270881   0.001318  -0.000207   9.061512  -0.040020
     6  Cl  -0.081913   0.276377   0.005617   0.001316  -0.040020  16.758191
 Mulliken charges:
               1
     1  C    0.166599
     2  C    0.166613
     3  Cl   0.080016
     4  F   -0.246721
     5  F   -0.246939
     6  Cl   0.080432
 Sum of Mulliken charges =  -0.00000
 Mulliken charges with hydrogens summed into heavy atoms:
               1
     1  C    0.166599
     2  C    0.166613
     3  Cl   0.080016
     4  F   -0.246721
     5  F   -0.246939
     6  Cl   0.080432
 Electronic spatial extent (au):  <R**2>=            853.1723
 Charge=             -0.0000 electrons
 Dipole moment (field-independent basis, Debye):
    X=              0.0016    Y=             -0.8170    Z=              0.0002  Tot=              0.8170
 Quadrupole moment (field-independent basis, Debye-Ang):
   XX=            -45.6596   YY=            -45.8391   ZZ=            -45.0916
   XY=             -0.0051   XZ=              0.0001   YZ=              0.0006
 Traceless Quadrupole moment (field-independent basis, Debye-Ang):
   XX=             -0.1295   YY=             -0.3090   ZZ=              0.4385
   XY=             -0.0051   XZ=              0.0001   YZ=              0.0006
 Octapole moment (field-independent basis, Debye-Ang**2):
  XXX=              0.0114  YYY=              8.4844  ZZZ=             -0.0021  XYY=              0.0011
  XXY=             -1.4273  XXZ=             -0.0016  XZZ=              0.0023  YZZ=              6.2730
  YYZ=             -0.0016  XYZ=              0.0001
 Hexadecapole moment (field-independent basis, Debye-Ang**3):
 XXXX=           -574.8510 YYYY=           -324.2984 ZZZZ=            -43.2980 XXXY=             -0.0171
 XXXZ=              0.0200 YYYX=             -0.0145 YYYZ=             -0.0030 ZZZX=              0.0195
 ZZZY=             -0.0053 XXYY=           -141.7875 XXZZ=           -105.3272 YYZZ=            -62.8168
 XXYZ=              0.0018 YYXZ=              0.0071 ZZXY=             -0.0027
 N-N= 3.508207392217D+02 E-N=-3.540399936167D+03  KE= 1.191369648408D+03
 No NMR shielding tensors so no spin-rotation constants.
 Leave Link  601 at Thu Jul 10 13:57:00 2025, MaxMem=  2684354560 cpu:               2.4 elap:               0.2
 (Enter /apps/gaussian/g16c01/g16/l9999.exe)
 Unable to Open any file for archive entry.
 1\1\GINC-GADI-CPU-CLX-0969\SP\RM052X\6-31G(d)\C2Cl2F2\YR9300\10-Jul-20
 25\0\\#P M052X/6-31G* scrf(SMD,solvent=n-octanol)\\Cl2F2_iso1_oct_M05-
 2x\\0,1\C,0,0.664671,0.416996,-0.00037\C,0,-0.664928,0.416545,-0.00008
 8\Cl,0,1.664567,-0.978557,-0.00004\F,0,1.331739,1.570705,-0.000073\F,0
 ,-1.331919,1.570531,0.000163\Cl,0,-1.664381,-0.978641,0.000154\\Versio
 n=ES64L-G16RevC.01\State=1-A\HF=-1196.1489602\RMSD=5.261e-09\Dipole=-0
 .0006459,-0.3214188,-0.0000952\Quadrupole=-0.0962648,-0.2297137,0.3259
 785,0.0038233,0.0000567,-0.0004823\PG=C01 [X(C2Cl2F2)]\\@
 The archive entry for this job was punched.


 WHEN ALL ELSE FAILS, LOOK AT THE SCHRODINGER EQUATION.
     -- RUSSELL T. PACK, APRIL 1978
 Job cpu time:       0 days  0 hours  1 minutes 28.4 seconds.
 Elapsed time:       0 days  0 hours  0 minutes  4.8 seconds.
 File lengths (MBytes):  RWF=     22 Int=      0 D2E=      0 Chk=      2 Scr=      1
 Normal termination of Gaussian 16 at Thu Jul 10 13:57:00 2025.
