 Entering Gaussian System, Link 0=g09
 Initial command:
 /apps/z_install_tree/linux-rocky8-ivybridge/gcc-12.2.0/gaussian-09-D.01-wczn3gur5lpur3omlkzwa2l5ecyxp5ef/g09/l1.exe "/srv/scratch/z5112331/GMX/ligands/Tetrafluoroethene/Gau-2002605.inp" -scrdir="/srv/scratch/z5112331/GMX/ligands/Tetrafluoroethene/"
 Entering Link 1 = /apps/z_install_tree/linux-rocky8-ivybridge/gcc-12.2.0/gaussian-09-D.01-wczn3gur5lpur3omlkzwa2l5ecyxp5ef/g09/l1.exe PID=   2002606.
  
 Copyright (c) 1988,1990,1992,1993,1995,1998,2003,2009,2013,
            Gaussian, Inc.  All Rights Reserved.
  
 This is part of the Gaussian(R) 09 program.  It is based on
 the Gaussian(R) 03 system (copyright 2003, Gaussian, Inc.),
 the Gaussian(R) 98 system (copyright 1998, Gaussian, Inc.),
 the Gaussian(R) 94 system (copyright 1995, Gaussian, Inc.),
 the Gaussian 92(TM) system (copyright 1992, Gaussian, Inc.),
 the Gaussian 90(TM) system (copyright 1990, Gaussian, Inc.),
 the Gaussian 88(TM) system (copyright 1988, Gaussian, Inc.),
 the Gaussian 86(TM) system (copyright 1986, Carnegie Mellon
 University), and the Gaussian 82(TM) system (copyright 1983,
 Carnegie Mellon University). Gaussian is a federally registered
 trademark of Gaussian, Inc.
  
 This software contains proprietary and confidential information,
 including trade secrets, belonging to Gaussian, Inc.
  
 This software is provided under written license and may be
 used, copied, transmitted, or stored only in accord with that
 written license.
  
 The following legend is applicable only to US Government
 contracts under FAR:
  
                    RESTRICTED RIGHTS LEGEND
  
 Use, reproduction and disclosure by the US Government is
 subject to restrictions as set forth in subparagraphs (a)
 and (c) of the Commercial Computer Software - Restricted
 Rights clause in FAR 52.227-19.
  
 Gaussian, Inc.
 340 Quinnipiac St., Bldg. 40, Wallingford CT 06492
  
  
 ---------------------------------------------------------------
 Warning -- This program may not be used in any manner that
 competes with the business of Gaussian, Inc. or will provide
 assistance to any competitor of Gaussian, Inc.  The licensee
 of this program is prohibited from giving any competitor of
 Gaussian, Inc. access to this program.  By using this program,
 the user acknowledges that Gaussian, Inc. is engaged in the
 business of creating and licensing software in the field of
 computational chemistry and represents and warrants to the
 licensee that it is not a competitor of Gaussian, Inc. and that
 it will not use this program in any manner prohibited above.
 ---------------------------------------------------------------
  

 Cite this work as:
 Gaussian 09, Revision D.01,
 M. J. Frisch, G. W. Trucks, H. B. Schlegel, G. E. Scuseria, 
 M. A. Robb, J. R. Cheeseman, G. Scalmani, V. Barone, B. Mennucci, 
 G. A. Petersson, H. Nakatsuji, M. Caricato, X. Li, H. P. Hratchian, 
 A. F. Izmaylov, J. Bloino, G. Zheng, J. L. Sonnenberg, M. Hada, 
 M. Ehara, K. Toyota, R. Fukuda, J. Hasegawa, M. Ishida, T. Nakajima, 
 Y. Honda, O. Kitao, H. Nakai, T. Vreven, J. A. Montgomery, Jr., 
 J. E. Peralta, F. Ogliaro, M. Bearpark, J. J. Heyd, E. Brothers, 
 K. N. Kudin, V. N. Staroverov, T. Keith, R. Kobayashi, J. Normand, 
 K. Raghavachari, A. Rendell, J. C. Burant, S. S. Iyengar, J. Tomasi, 
 M. Cossi, N. Rega, J. M. Millam, M. Klene, J. E. Knox, J. B. Cross, 
 V. Bakken, C. Adamo, J. Jaramillo, R. Gomperts, R. E. Stratmann, 
 O. Yazyev, A. J. Austin, R. Cammi, C. Pomelli, J. W. Ochterski, 
 R. L. Martin, K. Morokuma, V. G. Zakrzewski, G. A. Voth, 
 P. Salvador, J. J. Dannenberg, S. Dapprich, A. D. Daniels, 
 O. Farkas, J. B. Foresman, J. V. Ortiz, J. Cioslowski, 
 and D. J. Fox, Gaussian, Inc., Wallingford CT, 2013.
 
 ******************************************
 Gaussian 09:  ES64L-G09RevD.01 24-Apr-2013
                13-Jun-2024 
 ******************************************
 %chk=tetrafluoroethene.chk
 %mem=8GB
 %nprocshared=20
 Will use up to   20 processors via shared memory.
 -------------------------------------------------------------------
 #p opt freq b3lyp/gen nosymm em=gd3 int=ultrafine scf=xqc scfcyc=96
 -------------------------------------------------------------------
 1/14=-1,18=20,19=15,26=4,38=1/1,3;
 2/9=110,12=2,15=1,17=6,18=5,40=1/2;
 3/5=7,11=2,16=1,25=1,30=1,71=1,74=-5,75=-5,124=31/1,2,3;
 4//1;
 5/5=2,7=96,8=3,13=1,38=5/2,8;
 6/7=2,8=2,9=2,10=2,28=1/1;
 7/30=1/1,2,3,16;
 1/14=-1,18=20,19=15,26=4/3(2);
 2/9=110,15=1/2;
 99//99;
 2/9=110,15=1/2;
 3/5=7,6=1,11=2,16=1,25=1,30=1,71=1,74=-5,75=-5,82=7,124=31/1,2,3;
 4/5=5,16=3,69=1/1;
 5/5=2,7=96,8=3,13=1,38=5/2,8;
 7/30=1/1,2,3,16;
 1/14=-1,18=20,19=15,26=4/3(-5);
 2/9=110,15=1/2;
 6/7=2,8=2,9=2,10=2,19=2,28=1/1;
 99/9=1/99;
 Leave Link    1 at Thu Jun 13 10:44:23 2024, MaxMem=  1073741824 cpu:         1.8
 (Enter /apps/z_install_tree/linux-rocky8-ivybridge/gcc-12.2.0/gaussian-09-D.01-wczn3gur5lpur3omlkzwa2l5ecyxp5ef/g09/l101.exe)
 -----------------
 tetrafluoroethene
 -----------------
 Symbolic Z-matrix:
 Charge =  0 Multiplicity = 1
 C                     49.83268   35.70312   32.6023 
 C                     50.65044   36.37612   31.79207 
 F                     49.64083   36.08897   34.27364 
 F                     48.89913   34.37476   32.00221 
 F                     50.76681   36.04319   30.50912 
 F                     51.63612   37.70884   32.23566 
 
 Add virtual bond connecting atoms F6         and C2         Dist= 3.24D+00.
 Add virtual bond connecting atoms F3         and C1         Dist= 3.26D+00.
 Add virtual bond connecting atoms F4         and C1         Dist= 3.27D+00.
 NAtoms=      6 NQM=        6 NQMF=       0 NMMI=      0 NMMIF=      0
                NMic=       0 NMicF=      0.
                    Isotopes and Nuclear Properties:
 (Nuclear quadrupole moments (NQMom) in fm**2, nuclear magnetic moments (NMagM)
  in nuclear magnetons)

  Atom         1           2           3           4           5           6
 IAtWgt=          12          12          19          19          19          19
 AtmWgt=  12.0000000  12.0000000  18.9984033  18.9984033  18.9984033  18.9984033
 NucSpn=           0           0           1           1           1           1
 AtZEff=   0.0000000   0.0000000   0.0000000   0.0000000   0.0000000   0.0000000
 NQMom=    0.0000000   0.0000000   0.0000000   0.0000000   0.0000000   0.0000000
 NMagM=    0.0000000   0.0000000   2.6288670   2.6288670   2.6288670   2.6288670
 AtZNuc=   6.0000000   6.0000000   9.0000000   9.0000000   9.0000000   9.0000000
 Leave Link  101 at Thu Jun 13 10:44:23 2024, MaxMem=  1073741824 cpu:         3.3
 (Enter /apps/z_install_tree/linux-rocky8-ivybridge/gcc-12.2.0/gaussian-09-D.01-wczn3gur5lpur3omlkzwa2l5ecyxp5ef/g09/l103.exe)

 GradGradGradGradGradGradGradGradGradGradGradGradGradGradGradGradGradGrad
 Berny optimization.
 Initialization pass.
                           ----------------------------
                           !    Initial Parameters    !
                           ! (Angstroms and Degrees)  !
 --------------------------                            --------------------------
 ! Name  Definition              Value          Derivative Info.                !
 --------------------------------------------------------------------------------
 ! R1    R(1,2)                  1.3335         estimate D2E/DX2                !
 ! R2    R(1,3)                  1.726          estimate D2E/DX2                !
 ! R3    R(1,4)                  1.7309         estimate D2E/DX2                !
 ! R4    R(2,5)                  1.3305         estimate D2E/DX2                !
 ! R5    R(2,6)                  1.7159         estimate D2E/DX2                !
 ! A1    A(2,1,3)              122.9366         estimate D2E/DX2                !
 ! A2    A(2,1,4)              120.492          estimate D2E/DX2                !
 ! A3    A(3,1,4)              116.5713         estimate D2E/DX2                !
 ! A4    A(1,2,5)              120.879          estimate D2E/DX2                !
 ! A5    A(1,2,6)              125.9571         estimate D2E/DX2                !
 ! A6    A(5,2,6)              113.1639         estimate D2E/DX2                !
 ! D1    D(3,1,2,5)            179.9974         estimate D2E/DX2                !
 ! D2    D(3,1,2,6)             -0.0065         estimate D2E/DX2                !
 ! D3    D(4,1,2,5)              0.0046         estimate D2E/DX2                !
 ! D4    D(4,1,2,6)           -179.9994         estimate D2E/DX2                !
 --------------------------------------------------------------------------------
 Trust Radius=3.00D-01 FncErr=1.00D-07 GrdErr=1.00D-06
 Number of steps in this run=     25 maximum allowed number of steps=    100.
 GradGradGradGradGradGradGradGradGradGradGradGradGradGradGradGradGradGrad

 Leave Link  103 at Thu Jun 13 10:44:23 2024, MaxMem=  1073741824 cpu:         0.4
 (Enter /apps/z_install_tree/linux-rocky8-ivybridge/gcc-12.2.0/gaussian-09-D.01-wczn3gur5lpur3omlkzwa2l5ecyxp5ef/g09/l202.exe)
                          Input orientation:                          
 ---------------------------------------------------------------------
 Center     Atomic      Atomic             Coordinates (Angstroms)
 Number     Number       Type             X           Y           Z
 ---------------------------------------------------------------------
      1          6           0       49.832676   35.703124   32.602296
      2          6           0       50.650444   36.376117   31.792073
      3          9           0       49.640826   36.088965   34.273638
      4          9           0       48.899128   34.374762   32.002207
      5          9           0       50.766812   36.043191   30.509122
      6          9           0       51.636115   37.708841   32.235663
 ---------------------------------------------------------------------
                    Distance matrix (angstroms):
                    1          2          3          4          5
     1  C    0.000000
     2  C    1.333464   0.000000
     3  F    1.725996   2.694429   0.000000
     4  F    1.730943   2.667712   2.940749   0.000000
     5  F    2.317247   1.330543   3.929570   2.915682   0.000000
     6  F    2.722079   1.715947   3.280018   4.319917   2.551670
                    6
     6  F    0.000000
 Symmetry turned off by external request.
 Stoichiometry    C2F4
 Framework group  C1[X(C2F4)]
 Deg. of freedom    12
 Full point group                 C1      NOp   1
 Rotational constants (GHZ):      3.6250222      2.5683445      1.5032705
 Leave Link  202 at Thu Jun 13 10:44:23 2024, MaxMem=  1073741824 cpu:         0.1
 (Enter /apps/z_install_tree/linux-rocky8-ivybridge/gcc-12.2.0/gaussian-09-D.01-wczn3gur5lpur3omlkzwa2l5ecyxp5ef/g09/l301.exe)
 General basis read from cards:  (5D, 7F)
 Centers:       3      4      5      6      1      2
 6-311+g(2d,2p)
 ****
 Ernie: Thresh=  0.10000D-02 Tol=  0.10000D-05 Strict=F.
   162 basis functions,   252 primitive gaussians,   174 cartesian basis functions
    24 alpha electrons       24 beta electrons
       nuclear repulsion energy       209.6000380458 Hartrees.
 IExCor=  402 DFT=T Ex+Corr=B3LYP ExCW=0 ScaHFX=  0.200000
 ScaDFX=  0.800000  0.720000  1.000000  0.810000 ScalE2=  1.000000  1.000000
 IRadAn=      5 IRanWt=     -1 IRanGd=            0 ICorTp=0 IEmpDi=131
 NAtoms=    6 NActive=    6 NUniq=    6 SFac= 1.00D+00 NAtFMM=   60 NAOKFM=F Big=F
 Integral buffers will be    131072 words long.
 Raffenetti 2 integral format.
 Two-electron integral symmetry is turned off.
 R6Disp:  Grimme-D3 Dispersion energy=       -0.0027076146 Hartrees.
 Nuclear repulsion after empirical dispersion term =      209.5973304312 Hartrees.
 Leave Link  301 at Thu Jun 13 10:44:23 2024, MaxMem=  1073741824 cpu:         0.9
 (Enter /apps/z_install_tree/linux-rocky8-ivybridge/gcc-12.2.0/gaussian-09-D.01-wczn3gur5lpur3omlkzwa2l5ecyxp5ef/g09/l302.exe)
 NPDir=0 NMtPBC=     1 NCelOv=     1 NCel=       1 NClECP=     1 NCelD=      1
         NCelK=      1 NCelE2=     1 NClLst=     1 CellRange=     0.0.
 One-electron integrals computed using PRISM.
 NBasis=   162 RedAO= T EigKep=  9.70D-05  NBF=   162
 NBsUse=   162 1.00D-06 EigRej= -1.00D+00 NBFU=   162
 Precomputing XC quadrature grid using
 IXCGrd= 4 IRadAn=           5 IRanWt=          -1 IRanGd=           0 AccXCQ= 0.00D+00.
 Generated NRdTot=       0 NPtTot=           0 NUsed=           0 NTot=          32
 NSgBfM=   174   174   174   174   174 MxSgAt=     6 MxSgA2=     6.
 Leave Link  302 at Thu Jun 13 10:44:24 2024, MaxMem=  1073741824 cpu:         2.2
 (Enter /apps/z_install_tree/linux-rocky8-ivybridge/gcc-12.2.0/gaussian-09-D.01-wczn3gur5lpur3omlkzwa2l5ecyxp5ef/g09/l303.exe)
 DipDrv:  MaxL=1.
 Leave Link  303 at Thu Jun 13 10:44:24 2024, MaxMem=  1073741824 cpu:         0.4
 (Enter /apps/z_install_tree/linux-rocky8-ivybridge/gcc-12.2.0/gaussian-09-D.01-wczn3gur5lpur3omlkzwa2l5ecyxp5ef/g09/l401.exe)
 ExpMin= 4.38D-02 ExpMax= 1.14D+04 ExpMxC= 1.72D+03 IAcc=3 IRadAn=         5 AccDes= 0.00D+00
 Harris functional with IExCor=  402 and IRadAn=       5 diagonalized for initial guess.
 HarFok:  IExCor=  402 AccDes= 0.00D+00 IRadAn=         5 IDoV= 1 UseB2=F ITyADJ=14
 ICtDFT=  3500011 ScaDFX=  1.000000  1.000000  1.000000  1.000000
 FoFCou: FMM=F IPFlag=           0 FMFlag=      100000 FMFlg1=           0
         NFxFlg=           0 DoJE=T BraDBF=F KetDBF=T FulRan=T
         wScrn=  0.000000 ICntrl=     500 IOpCl=  0 I1Cent=   200000004 NGrid=           0
         NMat0=    1 NMatS0=      1 NMatT0=    0 NMatD0=    1 NMtDS0=    0 NMtDT0=    0
 Symmetry not used in FoFCou.
 Harris En= -475.497960493523    
 JPrj=0 DoOrth=F DoCkMO=F.
 Leave Link  401 at Thu Jun 13 10:44:24 2024, MaxMem=  1073741824 cpu:         3.4
 (Enter /apps/z_install_tree/linux-rocky8-ivybridge/gcc-12.2.0/gaussian-09-D.01-wczn3gur5lpur3omlkzwa2l5ecyxp5ef/g09/l502.exe)
 Closed shell SCF:
 Using DIIS extrapolation, IDIIS=  1040.
 Two-electron integral symmetry not used.
 Keep R1 ints in memory in canonical form, NReq=89952392.
 IVT=      106586 IEndB=      106586 NGot=  1073741824 MDV=   986469033
 LenX=   986469033 LenY=   986438316
 Requested convergence on RMS density matrix=1.00D-08 within  96 cycles.
 Requested convergence on MAX density matrix=1.00D-06.
 Requested convergence on             energy=1.00D-06.
 No special actions if energy rises.
 FoFCou: FMM=F IPFlag=           0 FMFlag=           0 FMFlg1=           0
         NFxFlg=           0 DoJE=F BraDBF=F KetDBF=F FulRan=T
         wScrn=  0.000000 ICntrl=     600 IOpCl=  0 I1Cent=           0 NGrid=           0
         NMat0=    1 NMatS0=  13203 NMatT0=    0 NMatD0=    1 NMtDS0=    0 NMtDT0=    0
 Symmetry not used in FoFCou.

 Cycle   1  Pass 1  IDiag  1:
 E= -475.366913045936    
 DIIS: error= 2.79D-02 at cycle   1 NSaved=   1.
 NSaved= 1 IEnMin= 1 EnMin= -475.366913045936     IErMin= 1 ErrMin= 2.79D-02
 ErrMax= 2.79D-02  0.00D+00 EMaxC= 1.00D-01 BMatC= 1.39D-01 BMatP= 1.39D-01
 IDIUse=3 WtCom= 7.21D-01 WtEn= 2.79D-01
 Coeff-Com:  0.100D+01
 Coeff-En:   0.100D+01
 Coeff:      0.100D+01
 Gap=     0.207 Goal=   None    Shift=    0.000
 GapD=    0.207 DampG=1.000 DampE=0.500 DampFc=0.5000 IDamp=-1.
 Damping current iteration by 5.00D-01
 RMSDP=4.53D-03 MaxDP=1.29D-01              OVMax= 3.14D-01

 Cycle   2  Pass 1  IDiag  1:
 E= -475.277394672070     Delta-E=        0.089518373866 Rises=F Damp=T
 DIIS: error= 3.22D-02 at cycle   2 NSaved=   2.
 NSaved= 2 IEnMin= 1 EnMin= -475.366913045936     IErMin= 1 ErrMin= 2.79D-02
 ErrMax= 3.22D-02  0.00D+00 EMaxC= 1.00D-01 BMatC= 1.22D-01 BMatP= 1.39D-01
 IDIUse=3 WtCom= 6.78D-01 WtEn= 3.22D-01
 Coeff-Com:  0.482D+00 0.518D+00
 Coeff-En:   0.664D+00 0.336D+00
 Coeff:      0.541D+00 0.459D+00
 Gap=     0.201 Goal=   None    Shift=    0.000
 RMSDP=1.13D-03 MaxDP=3.55D-02 DE= 8.95D-02 OVMax= 2.02D-01

 Cycle   3  Pass 1  IDiag  1:
 E= -475.468172227842     Delta-E=       -0.190777555771 Rises=F Damp=F
 DIIS: error= 7.49D-03 at cycle   3 NSaved=   3.
 NSaved= 3 IEnMin= 3 EnMin= -475.468172227842     IErMin= 3 ErrMin= 7.49D-03
 ErrMax= 7.49D-03  0.00D+00 EMaxC= 1.00D-01 BMatC= 6.40D-03 BMatP= 1.22D-01
 IDIUse=3 WtCom= 9.25D-01 WtEn= 7.49D-02
 Coeff-Com:  0.188D+00 0.693D-01 0.743D+00
 Coeff-En:   0.000D+00 0.000D+00 0.100D+01
 Coeff:      0.174D+00 0.641D-01 0.762D+00
 Gap=     0.161 Goal=   None    Shift=    0.000
 RMSDP=5.30D-04 MaxDP=1.89D-02 DE=-1.91D-01 OVMax= 2.39D-02

 Cycle   4  Pass 1  IDiag  1:
 E= -475.469616148704     Delta-E=       -0.001443920862 Rises=F Damp=F
 DIIS: error= 4.43D-03 at cycle   4 NSaved=   4.
 NSaved= 4 IEnMin= 4 EnMin= -475.469616148704     IErMin= 4 ErrMin= 4.43D-03
 ErrMax= 4.43D-03  0.00D+00 EMaxC= 1.00D-01 BMatC= 4.52D-03 BMatP= 6.40D-03
 IDIUse=3 WtCom= 9.56D-01 WtEn= 4.43D-02
 Coeff-Com:  0.746D-01-0.593D-02 0.541D+00 0.390D+00
 Coeff-En:   0.000D+00 0.000D+00 0.414D+00 0.586D+00
 Coeff:      0.713D-01-0.566D-02 0.535D+00 0.399D+00
 Gap=     0.165 Goal=   None    Shift=    0.000
 RMSDP=2.34D-04 MaxDP=5.79D-03 DE=-1.44D-03 OVMax= 1.62D-02

 Cycle   5  Pass 1  IDiag  1:
 E= -475.472579584732     Delta-E=       -0.002963436028 Rises=F Damp=F
 DIIS: error= 9.14D-04 at cycle   5 NSaved=   5.
 NSaved= 5 IEnMin= 5 EnMin= -475.472579584732     IErMin= 5 ErrMin= 9.14D-04
 ErrMax= 9.14D-04  0.00D+00 EMaxC= 1.00D-01 BMatC= 2.16D-04 BMatP= 4.52D-03
 IDIUse=3 WtCom= 9.91D-01 WtEn= 9.14D-03
 Coeff-Com:  0.223D-01-0.142D-01 0.241D+00 0.231D+00 0.520D+00
 Coeff-En:   0.000D+00 0.000D+00 0.000D+00 0.000D+00 0.100D+01
 Coeff:      0.221D-01-0.141D-01 0.239D+00 0.229D+00 0.524D+00
 Gap=     0.163 Goal=   None    Shift=    0.000
 RMSDP=6.46D-05 MaxDP=1.51D-03 DE=-2.96D-03 OVMax= 5.87D-03

 Cycle   6  Pass 1  IDiag  1:
 E= -475.472669945816     Delta-E=       -0.000090361083 Rises=F Damp=F
 DIIS: error= 6.65D-04 at cycle   6 NSaved=   6.
 NSaved= 6 IEnMin= 6 EnMin= -475.472669945816     IErMin= 6 ErrMin= 6.65D-04
 ErrMax= 6.65D-04  0.00D+00 EMaxC= 1.00D-01 BMatC= 7.45D-05 BMatP= 2.16D-04
 IDIUse=3 WtCom= 9.93D-01 WtEn= 6.65D-03
 Coeff-Com:  0.327D-02-0.102D-01 0.744D-01 0.907D-01 0.388D+00 0.454D+00
 Coeff-En:   0.000D+00 0.000D+00 0.000D+00 0.000D+00 0.305D+00 0.695D+00
 Coeff:      0.325D-02-0.102D-01 0.739D-01 0.901D-01 0.387D+00 0.456D+00
 Gap=     0.163 Goal=   None    Shift=    0.000
 RMSDP=2.74D-05 MaxDP=7.27D-04 DE=-9.04D-05 OVMax= 2.02D-03

 Cycle   7  Pass 1  IDiag  1:
 E= -475.472721321057     Delta-E=       -0.000051375241 Rises=F Damp=F
 DIIS: error= 7.01D-05 at cycle   7 NSaved=   7.
 NSaved= 7 IEnMin= 7 EnMin= -475.472721321057     IErMin= 7 ErrMin= 7.01D-05
 ErrMax= 7.01D-05  0.00D+00 EMaxC= 1.00D-01 BMatC= 6.25D-07 BMatP= 7.45D-05
 IDIUse=1 WtCom= 1.00D+00 WtEn= 0.00D+00
 Coeff-Com:  0.794D-03-0.327D-02 0.159D-01 0.201D-01 0.942D-01 0.135D+00
 Coeff-Com:  0.737D+00
 Coeff:      0.794D-03-0.327D-02 0.159D-01 0.201D-01 0.942D-01 0.135D+00
 Coeff:      0.737D+00
 Gap=     0.163 Goal=   None    Shift=    0.000
 RMSDP=4.81D-06 MaxDP=2.23D-04 DE=-5.14D-05 OVMax= 4.07D-04

 Cycle   8  Pass 1  IDiag  1:
 E= -475.472721545361     Delta-E=       -0.000000224304 Rises=F Damp=F
 DIIS: error= 5.41D-05 at cycle   8 NSaved=   8.
 NSaved= 8 IEnMin= 8 EnMin= -475.472721545361     IErMin= 8 ErrMin= 5.41D-05
 ErrMax= 5.41D-05  0.00D+00 EMaxC= 1.00D-01 BMatC= 4.37D-07 BMatP= 6.25D-07
 IDIUse=1 WtCom= 1.00D+00 WtEn= 0.00D+00
 Coeff-Com:  0.255D-03-0.145D-02 0.459D-02 0.613D-02 0.335D-01 0.573D-01
 Coeff-Com:  0.522D+00 0.377D+00
 Coeff:      0.255D-03-0.145D-02 0.459D-02 0.613D-02 0.335D-01 0.573D-01
 Coeff:      0.522D+00 0.377D+00
 Gap=     0.163 Goal=   None    Shift=    0.000
 RMSDP=2.46D-06 MaxDP=8.21D-05 DE=-2.24D-07 OVMax= 2.07D-04

 Cycle   9  Pass 1  IDiag  1:
 E= -475.472721880304     Delta-E=       -0.000000334943 Rises=F Damp=F
 DIIS: error= 1.01D-05 at cycle   9 NSaved=   9.
 NSaved= 9 IEnMin= 9 EnMin= -475.472721880304     IErMin= 9 ErrMin= 1.01D-05
 ErrMax= 1.01D-05  0.00D+00 EMaxC= 1.00D-01 BMatC= 1.95D-08 BMatP= 4.37D-07
 IDIUse=1 WtCom= 1.00D+00 WtEn= 0.00D+00
 Coeff-Com:  0.574D-04-0.283D-03 0.311D-03 0.429D-03 0.391D-02 0.106D-01
 Coeff-Com:  0.168D+00 0.211D+00 0.606D+00
 Coeff:      0.574D-04-0.283D-03 0.311D-03 0.429D-03 0.391D-02 0.106D-01
 Coeff:      0.168D+00 0.211D+00 0.606D+00
 Gap=     0.163 Goal=   None    Shift=    0.000
 RMSDP=5.62D-07 MaxDP=1.54D-05 DE=-3.35D-07 OVMax= 4.65D-05

 Cycle  10  Pass 1  IDiag  1:
 E= -475.472721892610     Delta-E=       -0.000000012305 Rises=F Damp=F
 DIIS: error= 3.69D-06 at cycle  10 NSaved=  10.
 NSaved=10 IEnMin=10 EnMin= -475.472721892610     IErMin=10 ErrMin= 3.69D-06
 ErrMax= 3.69D-06  0.00D+00 EMaxC= 1.00D-01 BMatC= 2.20D-09 BMatP= 1.95D-08
 IDIUse=1 WtCom= 1.00D+00 WtEn= 0.00D+00
 Coeff-Com:  0.162D-04-0.452D-04-0.287D-03-0.323D-03-0.716D-03 0.134D-02
 Coeff-Com:  0.508D-01 0.924D-01 0.333D+00 0.524D+00
 Coeff:      0.162D-04-0.452D-04-0.287D-03-0.323D-03-0.716D-03 0.134D-02
 Coeff:      0.508D-01 0.924D-01 0.333D+00 0.524D+00
 Gap=     0.163 Goal=   None    Shift=    0.000
 RMSDP=2.01D-07 MaxDP=5.73D-06 DE=-1.23D-08 OVMax= 2.43D-05

 Cycle  11  Pass 1  IDiag  1:
 E= -475.472721894229     Delta-E=       -0.000000001619 Rises=F Damp=F
 DIIS: error= 1.61D-06 at cycle  11 NSaved=  11.
 NSaved=11 IEnMin=11 EnMin= -475.472721894229     IErMin=11 ErrMin= 1.61D-06
 ErrMax= 1.61D-06  0.00D+00 EMaxC= 1.00D-01 BMatC= 3.11D-10 BMatP= 2.20D-09
 IDIUse=1 WtCom= 1.00D+00 WtEn= 0.00D+00
 Coeff-Com: -0.519D-05 0.178D-04-0.239D-03-0.248D-03-0.979D-03-0.963D-03
 Coeff-Com: -0.471D-02 0.123D-01 0.756D-01 0.306D+00 0.614D+00
 Coeff:     -0.519D-05 0.178D-04-0.239D-03-0.248D-03-0.979D-03-0.963D-03
 Coeff:     -0.471D-02 0.123D-01 0.756D-01 0.306D+00 0.614D+00
 Gap=     0.163 Goal=   None    Shift=    0.000
 RMSDP=7.24D-08 MaxDP=2.27D-06 DE=-1.62D-09 OVMax= 6.19D-06

 Cycle  12  Pass 1  IDiag  1:
 E= -475.472721894492     Delta-E=       -0.000000000263 Rises=F Damp=F
 DIIS: error= 1.02D-07 at cycle  12 NSaved=  12.
 NSaved=12 IEnMin=12 EnMin= -475.472721894492     IErMin=12 ErrMin= 1.02D-07
 ErrMax= 1.02D-07  0.00D+00 EMaxC= 1.00D-01 BMatC= 2.70D-12 BMatP= 3.11D-10
 IDIUse=1 WtCom= 1.00D+00 WtEn= 0.00D+00
 Coeff-Com: -0.278D-05 0.699D-05-0.307D-04-0.329D-04-0.114D-03-0.189D-03
 Coeff-Com: -0.357D-02-0.301D-02-0.222D-02 0.302D-01 0.104D+00 0.875D+00
 Coeff:     -0.278D-05 0.699D-05-0.307D-04-0.329D-04-0.114D-03-0.189D-03
 Coeff:     -0.357D-02-0.301D-02-0.222D-02 0.302D-01 0.104D+00 0.875D+00
 Gap=     0.163 Goal=   None    Shift=    0.000
 RMSDP=1.23D-08 MaxDP=4.61D-07 DE=-2.63D-10 OVMax= 8.94D-07

 Cycle  13  Pass 1  IDiag  1:
 E= -475.472721894501     Delta-E=       -0.000000000010 Rises=F Damp=F
 DIIS: error= 2.36D-08 at cycle  13 NSaved=  13.
 NSaved=13 IEnMin=13 EnMin= -475.472721894501     IErMin=13 ErrMin= 2.36D-08
 ErrMax= 2.36D-08  0.00D+00 EMaxC= 1.00D-01 BMatC= 9.39D-14 BMatP= 2.70D-12
 IDIUse=1 WtCom= 1.00D+00 WtEn= 0.00D+00
 Coeff-Com: -0.375D-06 0.469D-06 0.200D-05 0.861D-06 0.100D-04 0.297D-05
 Coeff-Com: -0.194D-03-0.635D-03-0.188D-02-0.305D-02 0.215D-02 0.949D-01
 Coeff-Com:  0.909D+00
 Coeff:     -0.375D-06 0.469D-06 0.200D-05 0.861D-06 0.100D-04 0.297D-05
 Coeff:     -0.194D-03-0.635D-03-0.188D-02-0.305D-02 0.215D-02 0.949D-01
 Coeff:      0.909D+00
 Gap=     0.163 Goal=   None    Shift=    0.000
 RMSDP=1.99D-09 MaxDP=4.26D-08 DE=-9.66D-12 OVMax= 1.76D-07

 SCF Done:  E(RB3LYP) =  -475.472721895     A.U. after   13 cycles
            NFock= 13  Conv=0.20D-08     -V/T= 2.0057
 KE= 4.727868648224D+02 PE=-1.547966367622D+03 EE= 3.901094504743D+02
 Leave Link  502 at Thu Jun 13 10:44:28 2024, MaxMem=  1073741824 cpu:        50.1
 (Enter /apps/z_install_tree/linux-rocky8-ivybridge/gcc-12.2.0/gaussian-09-D.01-wczn3gur5lpur3omlkzwa2l5ecyxp5ef/g09/l508.exe)
 QCSCF skips out because SCF is already converged.
 Leave Link  508 at Thu Jun 13 10:44:28 2024, MaxMem=  1073741824 cpu:         0.0
 (Enter /apps/z_install_tree/linux-rocky8-ivybridge/gcc-12.2.0/gaussian-09-D.01-wczn3gur5lpur3omlkzwa2l5ecyxp5ef/g09/l601.exe)
 Copying SCF densities to generalized density rwf, IOpCl= 0 IROHF=0.

 **********************************************************************

            Population analysis using the SCF density.

 **********************************************************************

 Alpha  occ. eigenvalues --  -24.81539 -24.75176 -24.74707 -24.74211 -10.45288
 Alpha  occ. eigenvalues --  -10.44085  -1.34776  -1.20321  -1.19536  -1.19210
 Alpha  occ. eigenvalues --   -0.88045  -0.69129  -0.59868  -0.57873  -0.57744
 Alpha  occ. eigenvalues --   -0.51710  -0.49670  -0.47669  -0.45757  -0.45659
 Alpha  occ. eigenvalues --   -0.45264  -0.45200  -0.44536  -0.36517
 Alpha virt. eigenvalues --   -0.20208  -0.17184  -0.08417  -0.08275   0.02092
 Alpha virt. eigenvalues --    0.04324   0.04858   0.05291   0.08310   0.08800
 Alpha virt. eigenvalues --    0.09389   0.14835   0.17506   0.18775   0.18777
 Alpha virt. eigenvalues --    0.22035   0.22359   0.26240   0.27011   0.27834
 Alpha virt. eigenvalues --    0.29208   0.29835   0.31866   0.33134   0.33375
 Alpha virt. eigenvalues --    0.33766   0.34476   0.35879   0.40207   0.44625
 Alpha virt. eigenvalues --    0.46035   0.48217   0.54354   0.57503   0.61096
 Alpha virt. eigenvalues --    0.64771   0.65785   0.67820   0.80757   0.83857
 Alpha virt. eigenvalues --    0.87720   0.90324   0.99816   1.06002   1.12394
 Alpha virt. eigenvalues --    1.22166   1.23475   1.24038   1.28633   1.31430
 Alpha virt. eigenvalues --    1.32605   1.32998   1.33249   1.33331   1.34863
 Alpha virt. eigenvalues --    1.35726   1.37746   1.40751   1.44083   1.50127
 Alpha virt. eigenvalues --    1.76717   1.81356   1.83284   1.91831   1.93529
 Alpha virt. eigenvalues --    1.95944   1.96517   1.96744   1.97602   1.99577
 Alpha virt. eigenvalues --    2.02399   2.02873   2.04137   2.05560   2.09312
 Alpha virt. eigenvalues --    2.12572   2.18561   2.20162   2.26556   2.30487
 Alpha virt. eigenvalues --    2.41703   2.55873   2.57430   2.69682   2.75245
 Alpha virt. eigenvalues --    2.91724   2.96093   2.99265   3.14988   3.16167
 Alpha virt. eigenvalues --    3.30282   3.31423   3.34600   3.36947   3.45452
 Alpha virt. eigenvalues --    3.49917   3.67414   3.72730   3.95404   4.41040
 Alpha virt. eigenvalues --    6.18180   6.23393   6.25032   6.26244   6.26599
 Alpha virt. eigenvalues --    6.28808   6.29789   6.32418   6.33552   6.36610
 Alpha virt. eigenvalues --    6.43198   6.56980   8.92898   8.96678   8.97927
 Alpha virt. eigenvalues --    8.98662   8.99697   8.99710   9.00635   9.01128
 Alpha virt. eigenvalues --    9.04580   9.05185   9.05289   9.10795   9.17316
 Alpha virt. eigenvalues --    9.17461   9.18878   9.31317   9.33419   9.40803
 Alpha virt. eigenvalues --    9.53332   9.59743  23.29617  23.86103  66.68094
 Alpha virt. eigenvalues --   66.69322  66.71648  66.75343
          Condensed to atoms (all electrons):
               1          2          3          4          5          6
     1  C    5.326952  -0.001014   0.243664   0.233596  -0.075096  -0.067301
     2  C   -0.001014   5.167287  -0.062191  -0.058749   0.219828   0.263294
     3  F    0.243664  -0.062191   9.019521  -0.014156   0.002830   0.003472
     4  F    0.233596  -0.058749  -0.014156   9.024857   0.006752   0.001205
     5  F   -0.075096   0.219828   0.002830   0.006752   9.060105  -0.018737
     6  F   -0.067301   0.263294   0.003472   0.001205  -0.018737   9.046483
 Mulliken charges:
               1
     1  C    0.339199
     2  C    0.471545
     3  F   -0.193141
     4  F   -0.193505
     5  F   -0.195682
     6  F   -0.228416
 Sum of Mulliken charges =   0.00000
 Mulliken charges with hydrogens summed into heavy atoms:
               1
     1  C    0.339199
     2  C    0.471545
     3  F   -0.193141
     4  F   -0.193505
     5  F   -0.195682
     6  F   -0.228416
 Electronic spatial extent (au):  <R**2>=         834242.7180
 Charge=              0.0000 electrons
 Dipole moment (field-independent basis, Debye):
    X=              0.2974    Y=             -0.1379    Z=             -1.3371  Tot=              1.3767
 Quadrupole moment (field-independent basis, Debye-Ang):
   XX=             -3.3460   YY=            -44.3115   ZZ=           -119.3951
   XY=              0.8729   XZ=            -57.3113   YZ=            -53.2406
 Traceless Quadrupole moment (field-independent basis, Debye-Ang):
   XX=             52.3382   YY=             11.3727   ZZ=            -63.7109
   XY=              0.8729   XZ=            -57.3113   YZ=            -53.2406
 Octapole moment (field-independent basis, Debye-Ang**2):
  XXX=          -2755.6641  YYY=          -4254.9943  ZZZ=          -7384.4619  XYY=          -2050.4880
  XXY=           -762.7886  XXZ=          -3456.0927  XZZ=          -5669.7436  YZZ=          -4485.3375
  YYZ=          -3209.4436  XYZ=          -2412.9993
 Hexadecapole moment (field-independent basis, Debye-Ang**3):
 XXXX=        -352408.9591 YYYY=        -294095.7955 ZZZZ=        -387174.4440 XXXY=        -139110.2949
 XXXZ=        -256430.5242 YYYX=        -211323.8957 YYYZ=        -202184.5613 ZZZX=        -359970.3535
 ZZZY=        -272645.1533 XXYY=        -137481.4929 XXZZ=        -303015.4053 YYZZ=        -204055.1397
 XXYZ=        -146755.1779 YYXZ=        -155182.0731 ZZXY=        -216535.3133
 N-N= 2.095973304312D+02 E-N=-1.547966367441D+03  KE= 4.727868648224D+02
 No NMR shielding tensors so no spin-rotation constants.
 Leave Link  601 at Thu Jun 13 10:44:28 2024, MaxMem=  1073741824 cpu:         3.1
 (Enter /apps/z_install_tree/linux-rocky8-ivybridge/gcc-12.2.0/gaussian-09-D.01-wczn3gur5lpur3omlkzwa2l5ecyxp5ef/g09/l701.exe)
 Compute integral first derivatives.
 ... and contract with generalized density number  0.
 R6Disp: Adding Grimme-D3 dispersion energy 1st derivatives to the gradient.
 Leave Link  701 at Thu Jun 13 10:44:28 2024, MaxMem=  1073741824 cpu:         1.8
 (Enter /apps/z_install_tree/linux-rocky8-ivybridge/gcc-12.2.0/gaussian-09-D.01-wczn3gur5lpur3omlkzwa2l5ecyxp5ef/g09/l702.exe)
 L702 exits ... SP integral derivatives will be done elsewhere.
 Leave Link  702 at Thu Jun 13 10:44:29 2024, MaxMem=  1073741824 cpu:         0.3
 (Enter /apps/z_install_tree/linux-rocky8-ivybridge/gcc-12.2.0/gaussian-09-D.01-wczn3gur5lpur3omlkzwa2l5ecyxp5ef/g09/l703.exe)
 Compute integral first derivatives, UseDBF=F ICtDFT=           0.
 Integral derivatives from FoFJK, PRISM(SPDF).
 Calling FoFJK, ICntrl=      2127 FMM=F ISym2X=0 I1Cent= 0 IOpClX= 0 NMat=1 NMatS=1 NMatT=0.
 FoFJK:  IHMeth= 1 ICntrl=    2127 DoSepK=F KAlg= 0 I1Cent=   0 FoldK=F
 IRaf=         0 NMat=   1 IRICut=       1 DoRegI=T DoRafI=F ISym2E= 0.
 FoFCou: FMM=F IPFlag=           0 FMFlag=      100000 FMFlg1=         800
         NFxFlg=           0 DoJE=F BraDBF=F KetDBF=F FulRan=T
         wScrn=  0.000000 ICntrl=    2127 IOpCl=  0 I1Cent=           0 NGrid=           0
         NMat0=    1 NMatS0=      1 NMatT0=    0 NMatD0=    1 NMtDS0=    0 NMtDT0=    0
 Symmetry not used in FoFCou.
 Leave Link  703 at Thu Jun 13 10:44:29 2024, MaxMem=  1073741824 cpu:        10.8
 (Enter /apps/z_install_tree/linux-rocky8-ivybridge/gcc-12.2.0/gaussian-09-D.01-wczn3gur5lpur3omlkzwa2l5ecyxp5ef/g09/l716.exe)
 Dipole        = 1.17019334D-01-5.42529402D-02-5.26067029D-01
 -------------------------------------------------------------------
 Center     Atomic                   Forces (Hartrees/Bohr)
 Number     Number              X              Y              Z
 -------------------------------------------------------------------
      1        6          -0.045245483   -0.029762558    0.065236953
      2        6           0.034191236    0.038881570   -0.004639164
      3        9           0.010437839   -0.030618328   -0.117153275
      4        9           0.062622282    0.090440919    0.043887718
      5        9           0.005297783    0.020985157    0.040035473
      6        9          -0.067303658   -0.089926761   -0.027367704
 -------------------------------------------------------------------
 Cartesian Forces:  Max     0.117153275 RMS     0.054836425
 Leave Link  716 at Thu Jun 13 10:44:29 2024, MaxMem=  1073741824 cpu:         0.5
 (Enter /apps/z_install_tree/linux-rocky8-ivybridge/gcc-12.2.0/gaussian-09-D.01-wczn3gur5lpur3omlkzwa2l5ecyxp5ef/g09/l103.exe)

 GradGradGradGradGradGradGradGradGradGradGradGradGradGradGradGradGradGrad
 Berny optimization.
 FormGI is forming the generalized inverse of G from B-inverse, IUseBI=4.
 Internal  Forces:  Max     0.121448222 RMS     0.055707103
 Search for a local minimum.
 Step number   1 out of a maximum of   25
 All quantities printed in internal units (Hartrees-Bohrs-Radians)
 RMS Force = .55707D-01 SwitMx=.10000D-02 MixMth= 1
 Mixed Optimization -- RFO/linear search
 Second derivative matrix not updated -- first step.
 The second derivative matrix:
                          R1        R2        R3        R4        R5
           R1           0.58695
           R2           0.00000   0.16814
           R3           0.00000   0.00000   0.16599
           R4           0.00000   0.00000   0.00000   0.59378
           R5           0.00000   0.00000   0.00000   0.00000   0.17262
           A1           0.00000   0.00000   0.00000   0.00000   0.00000
           A2           0.00000   0.00000   0.00000   0.00000   0.00000
           A3           0.00000   0.00000   0.00000   0.00000   0.00000
           A4           0.00000   0.00000   0.00000   0.00000   0.00000
           A5           0.00000   0.00000   0.00000   0.00000   0.00000
           A6           0.00000   0.00000   0.00000   0.00000   0.00000
           D1           0.00000   0.00000   0.00000   0.00000   0.00000
           D2           0.00000   0.00000   0.00000   0.00000   0.00000
           D3           0.00000   0.00000   0.00000   0.00000   0.00000
           D4           0.00000   0.00000   0.00000   0.00000   0.00000
                          A1        A2        A3        A4        A5
           A1           0.25000
           A2           0.00000   0.25000
           A3           0.00000   0.00000   0.25000
           A4           0.00000   0.00000   0.00000   0.25000
           A5           0.00000   0.00000   0.00000   0.00000   0.25000
           A6           0.00000   0.00000   0.00000   0.00000   0.00000
           D1           0.00000   0.00000   0.00000   0.00000   0.00000
           D2           0.00000   0.00000   0.00000   0.00000   0.00000
           D3           0.00000   0.00000   0.00000   0.00000   0.00000
           D4           0.00000   0.00000   0.00000   0.00000   0.00000
                          A6        D1        D2        D3        D4
           A6           0.25000
           D1           0.00000   0.02969
           D2           0.00000   0.00000   0.02969
           D3           0.00000   0.00000   0.00000   0.02969
           D4           0.00000   0.00000   0.00000   0.00000   0.02969
 ITU=  0
     Eigenvalues ---    0.02969   0.02969   0.02969   0.16599   0.16814
     Eigenvalues ---    0.17262   0.25000   0.25000   0.25000   0.25000
     Eigenvalues ---    0.58695   0.59378
 RFO step:  Lambda=-1.42652765D-01 EMin= 2.96890367D-02
 Linear search not attempted -- first point.
 Maximum step size (   0.300) exceeded in Quadratic search.
    -- Step size scaled by   0.448
 Iteration  1 RMS(Cart)=  0.08208632 RMS(Int)=  0.00035584
 Iteration  2 RMS(Cart)=  0.00064082 RMS(Int)=  0.00000020
 Iteration  3 RMS(Cart)=  0.00000021 RMS(Int)=  0.00000000
 ITry= 1 IFail=0 DXMaxC= 1.58D-01 DCOld= 1.00D+10 DXMaxT= 3.00D-01 DXLimC= 3.00D+00 Rises=F
 Variable       Old X    -DE/DX   Delta X   Delta X   Delta X     New X
                                 (Linear)    (Quad)   (Total)
    R1        2.51988  -0.03711   0.00000  -0.02280  -0.02280   2.49708
    R2        3.26166  -0.12145   0.00000  -0.17518  -0.17518   3.08648
    R3        3.27101  -0.11840   0.00000  -0.17196  -0.17196   3.09905
    R4        2.51436  -0.04339   0.00000  -0.02641  -0.02641   2.48795
    R5        3.24267  -0.11558   0.00000  -0.16434  -0.16434   3.07833
    A1        2.14565   0.00670   0.00000   0.00765   0.00765   2.15330
    A2        2.10298   0.00176   0.00000   0.00201   0.00201   2.10500
    A3        2.03455  -0.00846   0.00000  -0.00966  -0.00966   2.02489
    A4        2.10974   0.02591   0.00000   0.02958   0.02958   2.13931
    A5        2.19837  -0.01729   0.00000  -0.01974  -0.01974   2.17863
    A6        1.97508  -0.00861   0.00000  -0.00984  -0.00984   1.96525
    D1        3.14155   0.00000   0.00000   0.00000   0.00000   3.14155
    D2       -0.00011   0.00000   0.00000   0.00000   0.00000  -0.00011
    D3        0.00008   0.00000   0.00000   0.00000   0.00000   0.00008
    D4       -3.14158   0.00000   0.00000   0.00000   0.00000  -3.14158
         Item               Value     Threshold  Converged?
 Maximum Force            0.121448     0.000450     NO 
 RMS     Force            0.055707     0.000300     NO 
 Maximum Displacement     0.158080     0.001800     NO 
 RMS     Displacement     0.082000     0.001200     NO 
 Predicted change in Energy=-5.603503D-02
 Lowest energy point so far.  Saving SCF results.
 GradGradGradGradGradGradGradGradGradGradGradGradGradGradGradGradGradGrad

 Leave Link  103 at Thu Jun 13 10:44:29 2024, MaxMem=  1073741824 cpu:         1.6
 (Enter /apps/z_install_tree/linux-rocky8-ivybridge/gcc-12.2.0/gaussian-09-D.01-wczn3gur5lpur3omlkzwa2l5ecyxp5ef/g09/l202.exe)
                          Input orientation:                          
 ---------------------------------------------------------------------
 Center     Atomic      Atomic             Coordinates (Angstroms)
 Number     Number       Type             X           Y           Z
 ---------------------------------------------------------------------
      1          6           0       49.835183   35.708281   32.608247
      2          6           0       50.643215   36.369976   31.798717
      3          9           0       49.652539   36.072154   34.189986
      4          9           0       48.945161   34.447905   32.052610
      5          9           0       50.778338   36.062921   30.525609
      6          9           0       51.571565   37.633764   32.239831
 ---------------------------------------------------------------------
                    Distance matrix (angstroms):
                    1          2          3          4          5
     1  C    0.000000
     2  C    1.321399   0.000000
     3  F    1.633297   2.605437   0.000000
     4  F    1.639945   2.577248   2.776139   0.000000
     5  F    2.313589   1.316566   3.833428   2.881067   0.000000
     6  F    2.618824   1.628981   3.150300   4.133129   2.456688
                    6
     6  F    0.000000
 Symmetry turned off by external request.
 Stoichiometry    C2F4
 Framework group  C1[X(C2F4)]
 Deg. of freedom    12
 Full point group                 C1      NOp   1
 Rotational constants (GHZ):      3.9453749      2.7289226      1.6131470
 Leave Link  202 at Thu Jun 13 10:44:30 2024, MaxMem=  1073741824 cpu:         0.0
 (Enter /apps/z_install_tree/linux-rocky8-ivybridge/gcc-12.2.0/gaussian-09-D.01-wczn3gur5lpur3omlkzwa2l5ecyxp5ef/g09/l301.exe)
 Basis read from rwf:  (5D, 7F)
 No pseudopotential information found on rwf file.
   162 basis functions,   252 primitive gaussians,   174 cartesian basis functions
    24 alpha electrons       24 beta electrons
       nuclear repulsion energy       216.8252821140 Hartrees.
 IExCor=  402 DFT=T Ex+Corr=B3LYP ExCW=0 ScaHFX=  0.200000
 ScaDFX=  0.800000  0.720000  1.000000  0.810000 ScalE2=  1.000000  1.000000
 IRadAn=      5 IRanWt=     -1 IRanGd=            0 ICorTp=0 IEmpDi=131
 NAtoms=    6 NActive=    6 NUniq=    6 SFac= 1.00D+00 NAtFMM=   60 NAOKFM=F Big=F
 Integral buffers will be    131072 words long.
 Raffenetti 2 integral format.
 Two-electron integral symmetry is turned off.
 R6Disp:  Grimme-D3 Dispersion energy=       -0.0026107032 Hartrees.
 Nuclear repulsion after empirical dispersion term =      216.8226714108 Hartrees.
 No density basis found on file   724.
 Leave Link  301 at Thu Jun 13 10:44:30 2024, MaxMem=  1073741824 cpu:         1.0
 (Enter /apps/z_install_tree/linux-rocky8-ivybridge/gcc-12.2.0/gaussian-09-D.01-wczn3gur5lpur3omlkzwa2l5ecyxp5ef/g09/l302.exe)
 NPDir=0 NMtPBC=     1 NCelOv=     1 NCel=       1 NClECP=     1 NCelD=      1
         NCelK=      1 NCelE2=     1 NClLst=     1 CellRange=     0.0.
 One-electron integrals computed using PRISM.
 NBasis=   162 RedAO= T EigKep=  9.01D-05  NBF=   162
 NBsUse=   162 1.00D-06 EigRej= -1.00D+00 NBFU=   162
 Precomputing XC quadrature grid using
 IXCGrd= 4 IRadAn=           5 IRanWt=          -1 IRanGd=           0 AccXCQ= 0.00D+00.
 Generated NRdTot=       0 NPtTot=           0 NUsed=           0 NTot=          32
 NSgBfM=   174   174   174   174   174 MxSgAt=     6 MxSgA2=     6.
 Leave Link  302 at Thu Jun 13 10:44:30 2024, MaxMem=  1073741824 cpu:         2.6
 (Enter /apps/z_install_tree/linux-rocky8-ivybridge/gcc-12.2.0/gaussian-09-D.01-wczn3gur5lpur3omlkzwa2l5ecyxp5ef/g09/l303.exe)
 DipDrv:  MaxL=1.
 Leave Link  303 at Thu Jun 13 10:44:30 2024, MaxMem=  1073741824 cpu:         0.4
 (Enter /apps/z_install_tree/linux-rocky8-ivybridge/gcc-12.2.0/gaussian-09-D.01-wczn3gur5lpur3omlkzwa2l5ecyxp5ef/g09/l401.exe)
 Initial guess from the checkpoint file:  "tetrafluoroethene.chk"
 B after Tr=     0.006908    0.002885   -0.014477
         Rot=    1.000000   -0.000044    0.000037   -0.000014 Ang=  -0.01 deg.
 Guess basis will be translated and rotated to current coordinates.
 JPrj=2 DoOrth=T DoCkMO=T.
 Generating alternative initial guess.
 ExpMin= 4.38D-02 ExpMax= 1.14D+04 ExpMxC= 1.72D+03 IAcc=2 IRadAn=         4 AccDes= 0.00D+00
 Harris functional with IExCor=  402 and IRadAn=       4 diagonalized for initial guess.
 HarFok:  IExCor=  402 AccDes= 0.00D+00 IRadAn=         4 IDoV= 1 UseB2=F ITyADJ=14
 ICtDFT=  3500011 ScaDFX=  1.000000  1.000000  1.000000  1.000000
 FoFCou: FMM=F IPFlag=           0 FMFlag=      100000 FMFlg1=           0
         NFxFlg=           0 DoJE=T BraDBF=F KetDBF=T FulRan=T
         wScrn=  0.000000 ICntrl=     500 IOpCl=  0 I1Cent=   200000004 NGrid=           0
         NMat0=    1 NMatS0=      1 NMatT0=    0 NMatD0=    1 NMtDS0=    0 NMtDT0=    0
 Symmetry not used in FoFCou.
 Harris En= -475.547629450527    
 Leave Link  401 at Thu Jun 13 10:44:30 2024, MaxMem=  1073741824 cpu:         3.7
 (Enter /apps/z_install_tree/linux-rocky8-ivybridge/gcc-12.2.0/gaussian-09-D.01-wczn3gur5lpur3omlkzwa2l5ecyxp5ef/g09/l502.exe)
 Closed shell SCF:
 Using DIIS extrapolation, IDIIS=  1040.
 Two-electron integral symmetry not used.
 Keep R1 ints in memory in canonical form, NReq=89952392.
 IVT=      106586 IEndB=      106586 NGot=  1073741824 MDV=   986469033
 LenX=   986469033 LenY=   986438316
 Requested convergence on RMS density matrix=1.00D-08 within  96 cycles.
 Requested convergence on MAX density matrix=1.00D-06.
 Requested convergence on             energy=1.00D-06.
 No special actions if energy rises.
 FoFCou: FMM=F IPFlag=           0 FMFlag=           0 FMFlg1=           0
         NFxFlg=           0 DoJE=F BraDBF=F KetDBF=F FulRan=T
         wScrn=  0.000000 ICntrl=     600 IOpCl=  0 I1Cent=           0 NGrid=           0
         NMat0=    1 NMatS0=  13203 NMatT0=    0 NMatD0=    1 NMtDS0=    0 NMtDT0=    0
 Symmetry not used in FoFCou.

 Cycle   1  Pass 1  IDiag  1:
 E= -475.531588714831    
 DIIS: error= 3.64D-03 at cycle   1 NSaved=   1.
 NSaved= 1 IEnMin= 1 EnMin= -475.531588714831     IErMin= 1 ErrMin= 3.64D-03
 ErrMax= 3.64D-03  0.00D+00 EMaxC= 1.00D-01 BMatC= 3.69D-03 BMatP= 3.69D-03
 IDIUse=3 WtCom= 9.64D-01 WtEn= 3.64D-02
 Coeff-Com:  0.100D+01
 Coeff-En:   0.100D+01
 Coeff:      0.100D+01
 Gap=     0.542 Goal=   None    Shift=    0.000
 GapD=    0.542 DampG=2.000 DampE=1.000 DampFc=2.0000 IDamp=-1.
 RMSDP=9.23D-04 MaxDP=1.84D-02              OVMax= 2.74D-02

 Cycle   2  Pass 1  IDiag  1:
 E= -475.535186047627     Delta-E=       -0.003597332797 Rises=F Damp=F
 DIIS: error= 3.04D-03 at cycle   2 NSaved=   2.
 NSaved= 2 IEnMin= 2 EnMin= -475.535186047627     IErMin= 2 ErrMin= 3.04D-03
 ErrMax= 3.04D-03  0.00D+00 EMaxC= 1.00D-01 BMatC= 1.50D-03 BMatP= 3.69D-03
 IDIUse=3 WtCom= 9.70D-01 WtEn= 3.04D-02
 Coeff-Com:  0.319D+00 0.681D+00
 Coeff-En:   0.000D+00 0.100D+01
 Coeff:      0.309D+00 0.691D+00
 Gap=     0.198 Goal=   None    Shift=    0.000
 RMSDP=2.35D-04 MaxDP=5.23D-03 DE=-3.60D-03 OVMax= 1.43D-02

 Cycle   3  Pass 1  IDiag  1:
 E= -475.534628724736     Delta-E=        0.000557322891 Rises=F Damp=F
 DIIS: error= 3.72D-03 at cycle   3 NSaved=   3.
 NSaved= 3 IEnMin= 2 EnMin= -475.535186047627     IErMin= 2 ErrMin= 3.04D-03
 ErrMax= 3.72D-03  0.00D+00 EMaxC= 1.00D-01 BMatC= 2.22D-03 BMatP= 1.50D-03
 IDIUse=3 WtCom= 1.41D-01 WtEn= 8.59D-01
 Coeff-Com:  0.975D-02 0.546D+00 0.445D+00
 Coeff-En:   0.000D+00 0.587D+00 0.413D+00
 Coeff:      0.137D-02 0.581D+00 0.418D+00
 Gap=     0.197 Goal=   None    Shift=    0.000
 RMSDP=1.36D-04 MaxDP=4.81D-03 DE= 5.57D-04 OVMax= 1.03D-02

 Cycle   4  Pass 1  IDiag  1:
 E= -475.536104194987     Delta-E=       -0.001475470251 Rises=F Damp=F
 DIIS: error= 3.94D-04 at cycle   4 NSaved=   4.
 NSaved= 4 IEnMin= 4 EnMin= -475.536104194987     IErMin= 4 ErrMin= 3.94D-04
 ErrMax= 3.94D-04  0.00D+00 EMaxC= 1.00D-01 BMatC= 2.57D-05 BMatP= 1.50D-03
 IDIUse=3 WtCom= 9.96D-01 WtEn= 3.94D-03
 Coeff-Com: -0.143D-01 0.231D+00 0.154D+00 0.629D+00
 Coeff-En:   0.000D+00 0.000D+00 0.000D+00 0.100D+01
 Coeff:     -0.143D-01 0.230D+00 0.154D+00 0.630D+00
 Gap=     0.196 Goal=   None    Shift=    0.000
 RMSDP=1.94D-05 MaxDP=6.33D-04 DE=-1.48D-03 OVMax= 1.24D-03

 Cycle   5  Pass 1  IDiag  1:
 E= -475.536117447279     Delta-E=       -0.000013252291 Rises=F Damp=F
 DIIS: error= 1.20D-04 at cycle   5 NSaved=   5.
 NSaved= 5 IEnMin= 5 EnMin= -475.536117447279     IErMin= 5 ErrMin= 1.20D-04
 ErrMax= 1.20D-04  0.00D+00 EMaxC= 1.00D-01 BMatC= 1.97D-06 BMatP= 2.57D-05
 IDIUse=3 WtCom= 9.99D-01 WtEn= 1.20D-03
 Coeff-Com: -0.658D-02 0.797D-01 0.431D-01 0.290D+00 0.594D+00
 Coeff-En:   0.000D+00 0.000D+00 0.000D+00 0.000D+00 0.100D+01
 Coeff:     -0.657D-02 0.796D-01 0.430D-01 0.289D+00 0.595D+00
 Gap=     0.197 Goal=   None    Shift=    0.000
 RMSDP=7.83D-06 MaxDP=3.12D-04 DE=-1.33D-05 OVMax= 8.85D-04

 Cycle   6  Pass 1  IDiag  1:
 E= -475.536118496654     Delta-E=       -0.000001049375 Rises=F Damp=F
 DIIS: error= 8.12D-05 at cycle   6 NSaved=   6.
 NSaved= 6 IEnMin= 6 EnMin= -475.536118496654     IErMin= 6 ErrMin= 8.12D-05
 ErrMax= 8.12D-05  0.00D+00 EMaxC= 1.00D-01 BMatC= 8.97D-07 BMatP= 1.97D-06
 IDIUse=1 WtCom= 1.00D+00 WtEn= 0.00D+00
 Coeff-Com: -0.140D-02 0.857D-02-0.272D-02 0.668D-01 0.425D+00 0.504D+00
 Coeff:     -0.140D-02 0.857D-02-0.272D-02 0.668D-01 0.425D+00 0.504D+00
 Gap=     0.196 Goal=   None    Shift=    0.000
 RMSDP=3.49D-06 MaxDP=1.38D-04 DE=-1.05D-06 OVMax= 3.11D-04

 Cycle   7  Pass 1  IDiag  1:
 E= -475.536119227508     Delta-E=       -0.000000730854 Rises=F Damp=F
 DIIS: error= 1.28D-05 at cycle   7 NSaved=   7.
 NSaved= 7 IEnMin= 7 EnMin= -475.536119227508     IErMin= 7 ErrMin= 1.28D-05
 ErrMax= 1.28D-05  0.00D+00 EMaxC= 1.00D-01 BMatC= 3.02D-08 BMatP= 8.97D-07
 IDIUse=1 WtCom= 1.00D+00 WtEn= 0.00D+00
 Coeff-Com: -0.326D-03-0.195D-03-0.328D-02 0.153D-01 0.182D+00 0.260D+00
 Coeff-Com:  0.547D+00
 Coeff:     -0.326D-03-0.195D-03-0.328D-02 0.153D-01 0.182D+00 0.260D+00
 Coeff:      0.547D+00
 Gap=     0.196 Goal=   None    Shift=    0.000
 RMSDP=7.74D-07 MaxDP=1.65D-05 DE=-7.31D-07 OVMax= 6.01D-05

 Cycle   8  Pass 1  IDiag  1:
 E= -475.536119242340     Delta-E=       -0.000000014832 Rises=F Damp=F
 DIIS: error= 6.51D-06 at cycle   8 NSaved=   8.
 NSaved= 8 IEnMin= 8 EnMin= -475.536119242340     IErMin= 8 ErrMin= 6.51D-06
 ErrMax= 6.51D-06  0.00D+00 EMaxC= 1.00D-01 BMatC= 7.95D-09 BMatP= 3.02D-08
 IDIUse=1 WtCom= 1.00D+00 WtEn= 0.00D+00
 Coeff-Com:  0.581D-04-0.204D-02-0.151D-02-0.398D-02 0.350D-01 0.758D-01
 Coeff-Com:  0.363D+00 0.533D+00
 Coeff:      0.581D-04-0.204D-02-0.151D-02-0.398D-02 0.350D-01 0.758D-01
 Coeff:      0.363D+00 0.533D+00
 Gap=     0.196 Goal=   None    Shift=    0.000
 RMSDP=3.15D-07 MaxDP=1.17D-05 DE=-1.48D-08 OVMax= 2.87D-05

 Cycle   9  Pass 1  IDiag  1:
 E= -475.536119248384     Delta-E=       -0.000000006044 Rises=F Damp=F
 DIIS: error= 5.99D-07 at cycle   9 NSaved=   9.
 NSaved= 9 IEnMin= 9 EnMin= -475.536119248384     IErMin= 9 ErrMin= 5.99D-07
 ErrMax= 5.99D-07  0.00D+00 EMaxC= 1.00D-01 BMatC= 6.74D-11 BMatP= 7.95D-09
 IDIUse=1 WtCom= 1.00D+00 WtEn= 0.00D+00
 Coeff-Com:  0.237D-04-0.484D-03-0.116D-03-0.185D-02-0.176D-02 0.590D-02
 Coeff-Com:  0.712D-01 0.133D+00 0.794D+00
 Coeff:      0.237D-04-0.484D-03-0.116D-03-0.185D-02-0.176D-02 0.590D-02
 Coeff:      0.712D-01 0.133D+00 0.794D+00
 Gap=     0.196 Goal=   None    Shift=    0.000
 RMSDP=6.15D-08 MaxDP=9.54D-07 DE=-6.04D-09 OVMax= 3.27D-06

 Cycle  10  Pass 1  IDiag  1:
 E= -475.536119248374     Delta-E=        0.000000000010 Rises=F Damp=F
 DIIS: error= 6.32D-07 at cycle  10 NSaved=  10.
 NSaved=10 IEnMin= 9 EnMin= -475.536119248384     IErMin= 9 ErrMin= 5.99D-07
 ErrMax= 6.32D-07  0.00D+00 EMaxC= 1.00D-01 BMatC= 8.52D-11 BMatP= 6.74D-11
 IDIUse=1 WtCom= 1.00D+00 WtEn= 0.00D+00
 Coeff-Com:  0.132D-04-0.143D-03 0.604D-04-0.897D-03-0.476D-02-0.350D-02
 Coeff-Com:  0.120D-01 0.365D-01 0.598D+00 0.363D+00
 Coeff:      0.132D-04-0.143D-03 0.604D-04-0.897D-03-0.476D-02-0.350D-02
 Coeff:      0.120D-01 0.365D-01 0.598D+00 0.363D+00
 Gap=     0.196 Goal=   None    Shift=    0.000
 RMSDP=2.95D-08 MaxDP=7.41D-07 DE= 9.66D-12 OVMax= 1.76D-06

 Cycle  11  Pass 1  IDiag  1:
 E= -475.536119248438     Delta-E=       -0.000000000064 Rises=F Damp=F
 DIIS: error= 5.06D-08 at cycle  11 NSaved=  11.
 NSaved=11 IEnMin=11 EnMin= -475.536119248438     IErMin=11 ErrMin= 5.06D-08
 ErrMax= 5.06D-08  0.00D+00 EMaxC= 1.00D-01 BMatC= 5.97D-13 BMatP= 6.74D-11
 IDIUse=1 WtCom= 1.00D+00 WtEn= 0.00D+00
 Coeff-Com:  0.157D-05 0.105D-04 0.129D-04-0.611D-05-0.801D-03-0.106D-02
 Coeff-Com: -0.330D-02-0.538D-02 0.677D-01 0.622D-01 0.881D+00
 Coeff:      0.157D-05 0.105D-04 0.129D-04-0.611D-05-0.801D-03-0.106D-02
 Coeff:     -0.330D-02-0.538D-02 0.677D-01 0.622D-01 0.881D+00
 Gap=     0.196 Goal=   None    Shift=    0.000
 RMSDP=5.47D-09 MaxDP=1.54D-07 DE=-6.38D-11 OVMax= 3.56D-07

 SCF Done:  E(RB3LYP) =  -475.536119248     A.U. after   11 cycles
            NFock= 11  Conv=0.55D-08     -V/T= 2.0054
 KE= 4.729974021695D+02 PE=-1.562617306900D+03 EE= 3.972611140714D+02
 Leave Link  502 at Thu Jun 13 10:44:34 2024, MaxMem=  1073741824 cpu:        43.3
 (Enter /apps/z_install_tree/linux-rocky8-ivybridge/gcc-12.2.0/gaussian-09-D.01-wczn3gur5lpur3omlkzwa2l5ecyxp5ef/g09/l508.exe)
 QCSCF skips out because SCF is already converged.
 Leave Link  508 at Thu Jun 13 10:44:34 2024, MaxMem=  1073741824 cpu:         0.0
 (Enter /apps/z_install_tree/linux-rocky8-ivybridge/gcc-12.2.0/gaussian-09-D.01-wczn3gur5lpur3omlkzwa2l5ecyxp5ef/g09/l701.exe)
 Compute integral first derivatives.
 ... and contract with generalized density number  0.
 R6Disp: Adding Grimme-D3 dispersion energy 1st derivatives to the gradient.
 Leave Link  701 at Thu Jun 13 10:44:34 2024, MaxMem=  1073741824 cpu:         1.7
 (Enter /apps/z_install_tree/linux-rocky8-ivybridge/gcc-12.2.0/gaussian-09-D.01-wczn3gur5lpur3omlkzwa2l5ecyxp5ef/g09/l702.exe)
 L702 exits ... SP integral derivatives will be done elsewhere.
 Leave Link  702 at Thu Jun 13 10:44:34 2024, MaxMem=  1073741824 cpu:         0.3
 (Enter /apps/z_install_tree/linux-rocky8-ivybridge/gcc-12.2.0/gaussian-09-D.01-wczn3gur5lpur3omlkzwa2l5ecyxp5ef/g09/l703.exe)
 Compute integral first derivatives, UseDBF=F ICtDFT=           0.
 Integral derivatives from FoFJK, PRISM(SPDF).
 Calling FoFJK, ICntrl=      2127 FMM=F ISym2X=0 I1Cent= 0 IOpClX= 0 NMat=1 NMatS=1 NMatT=0.
 FoFJK:  IHMeth= 1 ICntrl=    2127 DoSepK=F KAlg= 0 I1Cent=   0 FoldK=F
 IRaf=         0 NMat=   1 IRICut=       1 DoRegI=T DoRafI=F ISym2E= 0.
 FoFCou: FMM=F IPFlag=           0 FMFlag=      100000 FMFlg1=         800
         NFxFlg=           0 DoJE=F BraDBF=F KetDBF=F FulRan=T
         wScrn=  0.000000 ICntrl=    2127 IOpCl=  0 I1Cent=           0 NGrid=           0
         NMat0=    1 NMatS0=      1 NMatT0=    0 NMatD0=    1 NMtDS0=    0 NMtDT0=    0
 Symmetry not used in FoFCou.
 Leave Link  703 at Thu Jun 13 10:44:35 2024, MaxMem=  1073741824 cpu:        11.1
 (Enter /apps/z_install_tree/linux-rocky8-ivybridge/gcc-12.2.0/gaussian-09-D.01-wczn3gur5lpur3omlkzwa2l5ecyxp5ef/g09/l716.exe)
 Dipole        = 9.89454120D-02-4.96280814D-02-4.55041198D-01
 -------------------------------------------------------------------
 Center     Atomic                   Forces (Hartrees/Bohr)
 Number     Number              X              Y              Z
 -------------------------------------------------------------------
      1        6          -0.055377752   -0.039585261    0.071237970
      2        6           0.044188595    0.053164505    0.001943876
      3        9           0.010158489   -0.030701995   -0.116476721
      4        9           0.062423550    0.090080648    0.043543712
      5        9           0.003641272    0.014348437    0.027316461
      6        9          -0.065034154   -0.087306335   -0.027565297
 -------------------------------------------------------------------
 Cartesian Forces:  Max     0.116476721 RMS     0.056069566
 Leave Link  716 at Thu Jun 13 10:44:35 2024, MaxMem=  1073741824 cpu:         0.4
 (Enter /apps/z_install_tree/linux-rocky8-ivybridge/gcc-12.2.0/gaussian-09-D.01-wczn3gur5lpur3omlkzwa2l5ecyxp5ef/g09/l103.exe)

 GradGradGradGradGradGradGradGradGradGradGradGradGradGradGradGradGradGrad
 Berny optimization.
 Using GEDIIS/GDIIS optimizer.
 FormGI is forming the generalized inverse of G from B-inverse, IUseBI=4.
 Internal  Forces:  Max     0.120775661 RMS     0.053650374
 Search for a local minimum.
 Step number   2 out of a maximum of   25
 All quantities printed in internal units (Hartrees-Bohrs-Radians)
 RMS Force = .53650D-01 SwitMx=.10000D-02 MixMth= 1
 Mixed Optimization -- RFO/linear search
 Update second derivatives using D2CorX and points    1    2
 DE= -6.34D-02 DEPred=-5.60D-02 R= 1.13D+00
 TightC=F SS=  1.41D+00  RLast= 3.00D-01 DXNew= 5.0454D-01 9.0000D-01
 Trust test= 1.13D+00 RLast= 3.00D-01 DXMaxT set to 5.05D-01
 The second derivative matrix:
                          R1        R2        R3        R4        R5
           R1           0.71625
           R2          -0.01885   0.11359
           R3          -0.01934  -0.05291   0.11468
           R4           0.11266  -0.02377  -0.02399   0.69101
           R5           0.00585  -0.05150  -0.05014  -0.00139   0.12811
           A1          -0.00133   0.00343   0.00335  -0.00074   0.00280
           A2           0.01107   0.00139   0.00127   0.01003   0.00316
           A3          -0.00975  -0.00483  -0.00462  -0.00929  -0.00596
           A4          -0.04832   0.01141   0.01147  -0.04154   0.00167
           A5           0.02016  -0.00814  -0.00807   0.01690  -0.00368
           A6           0.02816  -0.00327  -0.00340   0.02464   0.00201
           D1           0.00000   0.00000   0.00000   0.00000   0.00000
           D2           0.00000   0.00000   0.00000   0.00000   0.00000
           D3          -0.00001   0.00000   0.00000  -0.00001   0.00000
           D4          -0.00001   0.00000   0.00000  -0.00001   0.00000
                          A1        A2        A3        A4        A5
           A1           0.24983
           A2          -0.00028   0.25079
           A3           0.00045  -0.00051   0.25005
           A4           0.00025  -0.00437   0.00412   0.26772
           A5           0.00009   0.00200  -0.00209  -0.00714   0.25267
           A6          -0.00034   0.00237  -0.00203  -0.01059   0.00447
           D1           0.00000   0.00000   0.00000   0.00000   0.00000
           D2           0.00000   0.00000   0.00000   0.00000   0.00000
           D3           0.00000   0.00000   0.00000   0.00000   0.00000
           D4           0.00000   0.00000   0.00000   0.00000   0.00000
                          A6        D1        D2        D3        D4
           A6           0.25612
           D1           0.00000   0.02969
           D2           0.00000   0.00000   0.02969
           D3           0.00000   0.00000   0.00000   0.02969
           D4           0.00000   0.00000   0.00000   0.00000   0.02969
 ITU=  1  0
 Use linear search instead of GDIIS.
 Linear search step of   0.600 exceeds DXMaxT=   0.505 but not scaled.
 Quartic linear search produced a step of  2.00000.
 Iteration  1 RMS(Cart)=  0.10429570 RMS(Int)=  0.06341442
 Iteration  2 RMS(Cart)=  0.06132786 RMS(Int)=  0.00006541
 Iteration  3 RMS(Cart)=  0.00010834 RMS(Int)=  0.00000001
 Iteration  4 RMS(Cart)=  0.00000001 RMS(Int)=  0.00000000
 ITry= 1 IFail=0 DXMaxC= 3.14D-01 DCOld= 1.00D+10 DXMaxT= 5.05D-01 DXLimC= 3.00D+00 Rises=F
 Variable       Old X    -DE/DX   Delta X   Delta X   Delta X     New X
                                 (Linear)    (Quad)   (Total)
    R1        2.49708  -0.02147  -0.04560   0.00000  -0.04560   2.45148
    R2        3.08648  -0.12078  -0.35035   0.00000  -0.35035   2.73613
    R3        3.09905  -0.11786  -0.34392   0.00000  -0.34392   2.75512
    R4        2.48795  -0.02939  -0.05283   0.00000  -0.05283   2.43512
    R5        3.07833  -0.11226  -0.32868   0.00000  -0.32868   2.74964
    A1        2.15330   0.00637   0.01529   0.00000   0.01529   2.16859
    A2        2.10500   0.00295   0.00403   0.00000   0.00403   2.10902
    A3        2.02489  -0.00932  -0.01932   0.00000  -0.01932   2.00557
    A4        2.13931   0.01984   0.05915   0.00000   0.05915   2.19846
    A5        2.17863  -0.01458  -0.03948   0.00000  -0.03948   2.13914
    A6        1.96525  -0.00525  -0.01967   0.00000  -0.01967   1.94558
    D1        3.14155   0.00000   0.00000   0.00000   0.00000   3.14155
    D2       -0.00011   0.00000   0.00000   0.00000   0.00000  -0.00012
    D3        0.00008   0.00000   0.00000   0.00000   0.00000   0.00007
    D4       -3.14158   0.00000   0.00000   0.00000   0.00000  -3.14159
         Item               Value     Threshold  Converged?
 Maximum Force            0.120776     0.000450     NO 
 RMS     Force            0.053650     0.000300     NO 
 Maximum Displacement     0.314329     0.001800     NO 
 RMS     Displacement     0.163478     0.001200     NO 
 Predicted change in Energy=-1.209435D-01
 Lowest energy point so far.  Saving SCF results.
 GradGradGradGradGradGradGradGradGradGradGradGradGradGradGradGradGradGrad

 Leave Link  103 at Thu Jun 13 10:44:35 2024, MaxMem=  1073741824 cpu:         0.7
 (Enter /apps/z_install_tree/linux-rocky8-ivybridge/gcc-12.2.0/gaussian-09-D.01-wczn3gur5lpur3omlkzwa2l5ecyxp5ef/g09/l202.exe)
                          Input orientation:                          
 ---------------------------------------------------------------------
 Center     Atomic      Atomic             Coordinates (Angstroms)
 Number     Number       Type             X           Y           Z
 ---------------------------------------------------------------------
      1          6           0       49.839628   35.718272   32.621108
      2          6           0       50.628391   36.357964   31.813921
      3          9           0       49.675292   36.038089   34.023650
      4          9           0       49.038963   34.594817   32.149515
      5          9           0       50.799958   36.102179   30.562658
      6          9           0       51.443768   37.483679   32.244147
 ---------------------------------------------------------------------
                    Distance matrix (angstroms):
                    1          2          3          4          5
     1  C    0.000000
     2  C    1.297269   0.000000
     3  F    1.447899   2.427678   0.000000
     4  F    1.457949   2.397414   2.449557   0.000000
     5  F    2.303657   1.288611   3.639704   2.809156   0.000000
     6  F    2.414959   1.455049   2.895491   3.759996   2.269457
                    6
     6  F    0.000000
 Symmetry turned off by external request.
 Stoichiometry    C2F4
 Framework group  C1[X(C2F4)]
 Deg. of freedom    12
 Full point group                 C1      NOp   1
 Rotational constants (GHZ):      4.7832266      3.0667943      1.8686794
 Leave Link  202 at Thu Jun 13 10:44:35 2024, MaxMem=  1073741824 cpu:         0.1
 (Enter /apps/z_install_tree/linux-rocky8-ivybridge/gcc-12.2.0/gaussian-09-D.01-wczn3gur5lpur3omlkzwa2l5ecyxp5ef/g09/l301.exe)
 Basis read from rwf:  (5D, 7F)
 No pseudopotential information found on rwf file.
   162 basis functions,   252 primitive gaussians,   174 cartesian basis functions
    24 alpha electrons       24 beta electrons
       nuclear repulsion energy       233.3861851381 Hartrees.
 IExCor=  402 DFT=T Ex+Corr=B3LYP ExCW=0 ScaHFX=  0.200000
 ScaDFX=  0.800000  0.720000  1.000000  0.810000 ScalE2=  1.000000  1.000000
 IRadAn=      5 IRanWt=     -1 IRanGd=            0 ICorTp=0 IEmpDi=131
 NAtoms=    6 NActive=    6 NUniq=    6 SFac= 1.00D+00 NAtFMM=   60 NAOKFM=F Big=F
 Integral buffers will be    131072 words long.
 Raffenetti 2 integral format.
 Two-electron integral symmetry is turned off.
 R6Disp:  Grimme-D3 Dispersion energy=       -0.0022635852 Hartrees.
 Nuclear repulsion after empirical dispersion term =      233.3839215528 Hartrees.
 No density basis found on file   724.
 Leave Link  301 at Thu Jun 13 10:44:35 2024, MaxMem=  1073741824 cpu:         1.1
 (Enter /apps/z_install_tree/linux-rocky8-ivybridge/gcc-12.2.0/gaussian-09-D.01-wczn3gur5lpur3omlkzwa2l5ecyxp5ef/g09/l302.exe)
 NPDir=0 NMtPBC=     1 NCelOv=     1 NCel=       1 NClECP=     1 NCelD=      1
         NCelK=      1 NCelE2=     1 NClLst=     1 CellRange=     0.0.
 One-electron integrals computed using PRISM.
 NBasis=   162 RedAO= T EigKep=  7.81D-05  NBF=   162
 NBsUse=   162 1.00D-06 EigRej= -1.00D+00 NBFU=   162
 Precomputing XC quadrature grid using
 IXCGrd= 4 IRadAn=           5 IRanWt=          -1 IRanGd=           0 AccXCQ= 0.00D+00.
 Generated NRdTot=       0 NPtTot=           0 NUsed=           0 NTot=          32
 NSgBfM=   174   174   174   174   174 MxSgAt=     6 MxSgA2=     6.
 Leave Link  302 at Thu Jun 13 10:44:36 2024, MaxMem=  1073741824 cpu:         2.5
 (Enter /apps/z_install_tree/linux-rocky8-ivybridge/gcc-12.2.0/gaussian-09-D.01-wczn3gur5lpur3omlkzwa2l5ecyxp5ef/g09/l303.exe)
 DipDrv:  MaxL=1.
 Leave Link  303 at Thu Jun 13 10:44:36 2024, MaxMem=  1073741824 cpu:         0.4
 (Enter /apps/z_install_tree/linux-rocky8-ivybridge/gcc-12.2.0/gaussian-09-D.01-wczn3gur5lpur3omlkzwa2l5ecyxp5ef/g09/l401.exe)
 Initial guess from the checkpoint file:  "tetrafluoroethene.chk"
 B after Tr=     0.019857    0.008359   -0.041413
         Rot=    1.000000   -0.000129    0.000108   -0.000040 Ang=  -0.02 deg.
 Guess basis will be translated and rotated to current coordinates.
 JPrj=2 DoOrth=T DoCkMO=T.
 Generating alternative initial guess.
 ExpMin= 4.38D-02 ExpMax= 1.14D+04 ExpMxC= 1.72D+03 IAcc=2 IRadAn=         4 AccDes= 0.00D+00
 Harris functional with IExCor=  402 and IRadAn=       4 diagonalized for initial guess.
 HarFok:  IExCor=  402 AccDes= 0.00D+00 IRadAn=         4 IDoV= 1 UseB2=F ITyADJ=14
 ICtDFT=  3500011 ScaDFX=  1.000000  1.000000  1.000000  1.000000
 FoFCou: FMM=F IPFlag=           0 FMFlag=      100000 FMFlg1=           0
         NFxFlg=           0 DoJE=T BraDBF=F KetDBF=T FulRan=T
         wScrn=  0.000000 ICntrl=     500 IOpCl=  0 I1Cent=   200000004 NGrid=           0
         NMat0=    1 NMatS0=      1 NMatT0=    0 NMatD0=    1 NMtDS0=    0 NMtDT0=    0
 Symmetry not used in FoFCou.
 Harris En= -475.622942103992    
 Leave Link  401 at Thu Jun 13 10:44:36 2024, MaxMem=  1073741824 cpu:         3.7
 (Enter /apps/z_install_tree/linux-rocky8-ivybridge/gcc-12.2.0/gaussian-09-D.01-wczn3gur5lpur3omlkzwa2l5ecyxp5ef/g09/l502.exe)
 Closed shell SCF:
 Using DIIS extrapolation, IDIIS=  1040.
 Two-electron integral symmetry not used.
 Keep R1 ints in memory in canonical form, NReq=89952392.
 IVT=      106586 IEndB=      106586 NGot=  1073741824 MDV=   986469033
 LenX=   986469033 LenY=   986438316
 Requested convergence on RMS density matrix=1.00D-08 within  96 cycles.
 Requested convergence on MAX density matrix=1.00D-06.
 Requested convergence on             energy=1.00D-06.
 No special actions if energy rises.
 FoFCou: FMM=F IPFlag=           0 FMFlag=           0 FMFlg1=           0
         NFxFlg=           0 DoJE=F BraDBF=F KetDBF=F FulRan=T
         wScrn=  0.000000 ICntrl=     600 IOpCl=  0 I1Cent=           0 NGrid=           0
         NMat0=    1 NMatS0=  13203 NMatT0=    0 NMatD0=    1 NMtDS0=    0 NMtDT0=    0
 Symmetry not used in FoFCou.

 Cycle   1  Pass 1  IDiag  1:
 E= -475.618434949134    
 DIIS: error= 8.86D-03 at cycle   1 NSaved=   1.
 NSaved= 1 IEnMin= 1 EnMin= -475.618434949134     IErMin= 1 ErrMin= 8.86D-03
 ErrMax= 8.86D-03  0.00D+00 EMaxC= 1.00D-01 BMatC= 2.49D-02 BMatP= 2.49D-02
 IDIUse=3 WtCom= 9.11D-01 WtEn= 8.86D-02
 Coeff-Com:  0.100D+01
 Coeff-En:   0.100D+01
 Coeff:      0.100D+01
 Gap=     0.519 Goal=   None    Shift=    0.000
 GapD=    0.519 DampG=2.000 DampE=1.000 DampFc=2.0000 IDamp=-1.
 RMSDP=1.91D-03 MaxDP=3.95D-02              OVMax= 4.98D-02

 Cycle   2  Pass 1  IDiag  1:
 E= -475.642582754485     Delta-E=       -0.024147805350 Rises=F Damp=F
 DIIS: error= 5.00D-03 at cycle   2 NSaved=   2.
 NSaved= 2 IEnMin= 2 EnMin= -475.642582754485     IErMin= 2 ErrMin= 5.00D-03
 ErrMax= 5.00D-03  0.00D+00 EMaxC= 1.00D-01 BMatC= 3.58D-03 BMatP= 2.49D-02
 IDIUse=3 WtCom= 9.50D-01 WtEn= 5.00D-02
 Coeff-Com:  0.165D+00 0.835D+00
 Coeff-En:   0.000D+00 0.100D+01
 Coeff:      0.157D+00 0.843D+00
 Gap=     0.270 Goal=   None    Shift=    0.000
 RMSDP=3.29D-04 MaxDP=1.04D-02 DE=-2.41D-02 OVMax= 1.54D-02

 Cycle   3  Pass 1  IDiag  1:
 E= -475.641905914593     Delta-E=        0.000676839892 Rises=F Damp=F
 DIIS: error= 6.19D-03 at cycle   3 NSaved=   3.
 NSaved= 3 IEnMin= 2 EnMin= -475.642582754485     IErMin= 2 ErrMin= 5.00D-03
 ErrMax= 6.19D-03  0.00D+00 EMaxC= 1.00D-01 BMatC= 4.75D-03 BMatP= 3.58D-03
 IDIUse=3 WtCom= 1.13D-01 WtEn= 8.87D-01
 Coeff-Com:  0.795D-02 0.534D+00 0.458D+00
 Coeff-En:   0.000D+00 0.564D+00 0.436D+00
 Coeff:      0.897D-03 0.560D+00 0.439D+00
 Gap=     0.269 Goal=   None    Shift=    0.000
 RMSDP=1.96D-04 MaxDP=4.45D-03 DE= 6.77D-04 OVMax= 1.03D-02

 Cycle   4  Pass 1  IDiag  1:
 E= -475.644525777574     Delta-E=       -0.002619862981 Rises=F Damp=F
 DIIS: error= 1.01D-03 at cycle   4 NSaved=   4.
 NSaved= 4 IEnMin= 4 EnMin= -475.644525777574     IErMin= 4 ErrMin= 1.01D-03
 ErrMax= 1.01D-03  0.00D+00 EMaxC= 1.00D-01 BMatC= 9.61D-05 BMatP= 3.58D-03
 IDIUse=3 WtCom= 9.90D-01 WtEn= 1.01D-02
 Coeff-Com: -0.119D-01 0.203D+00 0.199D+00 0.610D+00
 Coeff-En:   0.000D+00 0.000D+00 0.000D+00 0.100D+01
 Coeff:     -0.117D-01 0.201D+00 0.197D+00 0.614D+00
 Gap=     0.269 Goal=   None    Shift=    0.000
 RMSDP=4.70D-05 MaxDP=1.42D-03 DE=-2.62D-03 OVMax= 2.14D-03

 Cycle   5  Pass 1  IDiag  1:
 E= -475.644597295575     Delta-E=       -0.000071518000 Rises=F Damp=F
 DIIS: error= 1.18D-04 at cycle   5 NSaved=   5.
 NSaved= 5 IEnMin= 5 EnMin= -475.644597295575     IErMin= 5 ErrMin= 1.18D-04
 ErrMax= 1.18D-04  0.00D+00 EMaxC= 1.00D-01 BMatC= 3.43D-06 BMatP= 9.61D-05
 IDIUse=3 WtCom= 9.99D-01 WtEn= 1.18D-03
 Coeff-Com: -0.279D-02 0.308D-01 0.250D-01 0.184D+00 0.763D+00
 Coeff-En:   0.000D+00 0.000D+00 0.000D+00 0.000D+00 0.100D+01
 Coeff:     -0.278D-02 0.307D-01 0.249D-01 0.184D+00 0.763D+00
 Gap=     0.269 Goal=   None    Shift=    0.000
 RMSDP=9.55D-06 MaxDP=3.21D-04 DE=-7.15D-05 OVMax= 6.62D-04

 Cycle   6  Pass 1  IDiag  1:
 E= -475.644599382570     Delta-E=       -0.000002086996 Rises=F Damp=F
 DIIS: error= 6.54D-05 at cycle   6 NSaved=   6.
 NSaved= 6 IEnMin= 6 EnMin= -475.644599382570     IErMin= 6 ErrMin= 6.54D-05
 ErrMax= 6.54D-05  0.00D+00 EMaxC= 1.00D-01 BMatC= 1.14D-06 BMatP= 3.43D-06
 IDIUse=1 WtCom= 1.00D+00 WtEn= 0.00D+00
 Coeff-Com: -0.982D-03 0.639D-02 0.300D-02 0.729D-01 0.464D+00 0.454D+00
 Coeff:     -0.982D-03 0.639D-02 0.300D-02 0.729D-01 0.464D+00 0.454D+00
 Gap=     0.269 Goal=   None    Shift=    0.000
 RMSDP=3.89D-06 MaxDP=9.93D-05 DE=-2.09D-06 OVMax= 3.58D-04

 Cycle   7  Pass 1  IDiag  1:
 E= -475.644600110783     Delta-E=       -0.000000728213 Rises=F Damp=F
 DIIS: error= 1.18D-05 at cycle   7 NSaved=   7.
 NSaved= 7 IEnMin= 7 EnMin= -475.644600110783     IErMin= 7 ErrMin= 1.18D-05
 ErrMax= 1.18D-05  0.00D+00 EMaxC= 1.00D-01 BMatC= 4.47D-08 BMatP= 1.14D-06
 IDIUse=1 WtCom= 1.00D+00 WtEn= 0.00D+00
 Coeff-Com: -0.100D-04-0.208D-02-0.243D-02 0.181D-02 0.905D-01 0.197D+00
 Coeff-Com:  0.715D+00
 Coeff:     -0.100D-04-0.208D-02-0.243D-02 0.181D-02 0.905D-01 0.197D+00
 Coeff:      0.715D+00
 Gap=     0.269 Goal=   None    Shift=    0.000
 RMSDP=9.59D-07 MaxDP=2.87D-05 DE=-7.28D-07 OVMax= 4.78D-05

 Cycle   8  Pass 1  IDiag  1:
 E= -475.644600140628     Delta-E=       -0.000000029845 Rises=F Damp=F
 DIIS: error= 3.51D-06 at cycle   8 NSaved=   8.
 NSaved= 8 IEnMin= 8 EnMin= -475.644600140628     IErMin= 8 ErrMin= 3.51D-06
 ErrMax= 3.51D-06  0.00D+00 EMaxC= 1.00D-01 BMatC= 3.00D-09 BMatP= 4.47D-08
 IDIUse=1 WtCom= 1.00D+00 WtEn= 0.00D+00
 Coeff-Com:  0.235D-04-0.128D-02-0.138D-02-0.722D-03 0.391D-01 0.947D-01
 Coeff-Com:  0.377D+00 0.493D+00
 Coeff:      0.235D-04-0.128D-02-0.138D-02-0.722D-03 0.391D-01 0.947D-01
 Coeff:      0.377D+00 0.493D+00
 Gap=     0.269 Goal=   None    Shift=    0.000
 RMSDP=2.05D-07 MaxDP=5.42D-06 DE=-2.98D-08 OVMax= 1.06D-05

 Cycle   9  Pass 1  IDiag  1:
 E= -475.644600142182     Delta-E=       -0.000000001553 Rises=F Damp=F
 DIIS: error= 1.26D-06 at cycle   9 NSaved=   9.
 NSaved= 9 IEnMin= 9 EnMin= -475.644600142182     IErMin= 9 ErrMin= 1.26D-06
 ErrMax= 1.26D-06  0.00D+00 EMaxC= 1.00D-01 BMatC= 3.69D-10 BMatP= 3.00D-09
 IDIUse=1 WtCom= 1.00D+00 WtEn= 0.00D+00
 Coeff-Com:  0.106D-04-0.168D-03-0.947D-04-0.105D-02-0.237D-02 0.379D-02
 Coeff-Com:  0.408D-01 0.264D+00 0.695D+00
 Coeff:      0.106D-04-0.168D-03-0.947D-04-0.105D-02-0.237D-02 0.379D-02
 Coeff:      0.408D-01 0.264D+00 0.695D+00
 Gap=     0.269 Goal=   None    Shift=    0.000
 RMSDP=7.57D-08 MaxDP=1.32D-06 DE=-1.55D-09 OVMax= 5.31D-06

 Cycle  10  Pass 1  IDiag  1:
 E= -475.644600142409     Delta-E=       -0.000000000227 Rises=F Damp=F
 DIIS: error= 2.51D-07 at cycle  10 NSaved=  10.
 NSaved=10 IEnMin=10 EnMin= -475.644600142409     IErMin=10 ErrMin= 2.51D-07
 ErrMax= 2.51D-07  0.00D+00 EMaxC= 1.00D-01 BMatC= 1.06D-11 BMatP= 3.69D-10
 IDIUse=1 WtCom= 1.00D+00 WtEn= 0.00D+00
 Coeff-Com:  0.447D-05-0.457D-04-0.114D-04-0.427D-03-0.188D-02-0.495D-03
 Coeff-Com:  0.875D-02 0.939D-01 0.308D+00 0.592D+00
 Coeff:      0.447D-05-0.457D-04-0.114D-04-0.427D-03-0.188D-02-0.495D-03
 Coeff:      0.875D-02 0.939D-01 0.308D+00 0.592D+00
 Gap=     0.269 Goal=   None    Shift=    0.000
 RMSDP=1.82D-08 MaxDP=6.24D-07 DE=-2.27D-10 OVMax= 2.00D-06

 Cycle  11  Pass 1  IDiag  1:
 E= -475.644600142410     Delta-E=       -0.000000000001 Rises=F Damp=F
 DIIS: error= 1.60D-07 at cycle  11 NSaved=  11.
 NSaved=11 IEnMin=11 EnMin= -475.644600142410     IErMin=11 ErrMin= 1.60D-07
 ErrMax= 1.60D-07  0.00D+00 EMaxC= 1.00D-01 BMatC= 2.76D-12 BMatP= 1.06D-11
 IDIUse=1 WtCom= 1.00D+00 WtEn= 0.00D+00
 Coeff-Com:  0.943D-06-0.101D-05 0.601D-05-0.754D-04-0.704D-03-0.897D-03
 Coeff-Com: -0.174D-02 0.746D-02 0.645D-01 0.361D+00 0.571D+00
 Coeff:      0.943D-06-0.101D-05 0.601D-05-0.754D-04-0.704D-03-0.897D-03
 Coeff:     -0.174D-02 0.746D-02 0.645D-01 0.361D+00 0.571D+00
 Gap=     0.269 Goal=   None    Shift=    0.000
 RMSDP=6.62D-09 MaxDP=2.62D-07 DE=-1.25D-12 OVMax= 6.86D-07

 SCF Done:  E(RB3LYP) =  -475.644600142     A.U. after   11 cycles
            NFock= 11  Conv=0.66D-08     -V/T= 2.0041
 KE= 4.737122182179D+02 PE=-1.596335601501D+03 EE= 4.135948615878D+02
 Leave Link  502 at Thu Jun 13 10:44:39 2024, MaxMem=  1073741824 cpu:        43.8
 (Enter /apps/z_install_tree/linux-rocky8-ivybridge/gcc-12.2.0/gaussian-09-D.01-wczn3gur5lpur3omlkzwa2l5ecyxp5ef/g09/l508.exe)
 QCSCF skips out because SCF is already converged.
 Leave Link  508 at Thu Jun 13 10:44:39 2024, MaxMem=  1073741824 cpu:         0.0
 (Enter /apps/z_install_tree/linux-rocky8-ivybridge/gcc-12.2.0/gaussian-09-D.01-wczn3gur5lpur3omlkzwa2l5ecyxp5ef/g09/l701.exe)
 Compute integral first derivatives.
 ... and contract with generalized density number  0.
 R6Disp: Adding Grimme-D3 dispersion energy 1st derivatives to the gradient.
 Leave Link  701 at Thu Jun 13 10:44:40 2024, MaxMem=  1073741824 cpu:         1.8
 (Enter /apps/z_install_tree/linux-rocky8-ivybridge/gcc-12.2.0/gaussian-09-D.01-wczn3gur5lpur3omlkzwa2l5ecyxp5ef/g09/l702.exe)
 L702 exits ... SP integral derivatives will be done elsewhere.
 Leave Link  702 at Thu Jun 13 10:44:40 2024, MaxMem=  1073741824 cpu:         0.3
 (Enter /apps/z_install_tree/linux-rocky8-ivybridge/gcc-12.2.0/gaussian-09-D.01-wczn3gur5lpur3omlkzwa2l5ecyxp5ef/g09/l703.exe)
 Compute integral first derivatives, UseDBF=F ICtDFT=           0.
 Integral derivatives from FoFJK, PRISM(SPDF).
 Calling FoFJK, ICntrl=      2127 FMM=F ISym2X=0 I1Cent= 0 IOpClX= 0 NMat=1 NMatS=1 NMatT=0.
 FoFJK:  IHMeth= 1 ICntrl=    2127 DoSepK=F KAlg= 0 I1Cent=   0 FoldK=F
 IRaf=         0 NMat=   1 IRICut=       1 DoRegI=T DoRafI=F ISym2E= 0.
 FoFCou: FMM=F IPFlag=           0 FMFlag=      100000 FMFlg1=         800
         NFxFlg=           0 DoJE=F BraDBF=F KetDBF=F FulRan=T
         wScrn=  0.000000 ICntrl=    2127 IOpCl=  0 I1Cent=           0 NGrid=           0
         NMat0=    1 NMatS0=      1 NMatT0=    0 NMatD0=    1 NMtDS0=    0 NMtDT0=    0
 Symmetry not used in FoFCou.
 Leave Link  703 at Thu Jun 13 10:44:40 2024, MaxMem=  1073741824 cpu:        11.6
 (Enter /apps/z_install_tree/linux-rocky8-ivybridge/gcc-12.2.0/gaussian-09-D.01-wczn3gur5lpur3omlkzwa2l5ecyxp5ef/g09/l716.exe)
 Dipole        = 4.97472177D-02-3.92299397D-02-2.67681614D-01
 -------------------------------------------------------------------
 Center     Atomic                   Forces (Hartrees/Bohr)
 Number     Number              X              Y              Z
 -------------------------------------------------------------------
      1        6          -0.060446170   -0.048373721    0.063683180
      2        6           0.052328108    0.067101581    0.013589650
      3        9           0.006761733   -0.021912716   -0.081564406
      4        9           0.043344498    0.063023392    0.031523891
      5        9           0.001131807   -0.001816333   -0.008597213
      6        9          -0.043119977   -0.058022203   -0.018635101
 -------------------------------------------------------------------
 Cartesian Forces:  Max     0.081564406 RMS     0.045429795
 Leave Link  716 at Thu Jun 13 10:44:40 2024, MaxMem=  1073741824 cpu:         0.4
 (Enter /apps/z_install_tree/linux-rocky8-ivybridge/gcc-12.2.0/gaussian-09-D.01-wczn3gur5lpur3omlkzwa2l5ecyxp5ef/g09/l103.exe)

 GradGradGradGradGradGradGradGradGradGradGradGradGradGradGradGradGradGrad
 Berny optimization.
 Using GEDIIS/GDIIS optimizer.
 FormGI is forming the generalized inverse of G from B-inverse, IUseBI=4.
 Internal  Forces:  Max     0.084616801 RMS     0.036640224
 Search for a local minimum.
 Step number   3 out of a maximum of   25
 All quantities printed in internal units (Hartrees-Bohrs-Radians)
 RMS Force = .36640D-01 SwitMx=.10000D-02 MixMth= 1
 Mixed Optimization -- RFO/linear search
 Update second derivatives using D2CorX and points    2    3
 The second derivative matrix:
                          R1        R2        R3        R4        R5
           R1           0.61292
           R2           0.00894   0.14406
           R3           0.00891  -0.02312   0.14380
           R4           0.02254   0.00332   0.00345   0.61262
           R5           0.01130  -0.02075  -0.01988   0.00578   0.15518
           A1          -0.00149   0.00074   0.00069  -0.00109   0.00048
           A2           0.00301   0.00328   0.00320   0.00298   0.00335
           A3          -0.00152  -0.00402  -0.00389  -0.00189  -0.00383
           A4          -0.00928  -0.00034  -0.00043  -0.00758  -0.00144
           A5           0.00322  -0.00247  -0.00234   0.00221  -0.00184
           A6           0.00605   0.00281   0.00277   0.00537   0.00329
           D1           0.00000   0.00000   0.00000   0.00000   0.00000
           D2           0.00000   0.00000   0.00000   0.00000   0.00000
           D3           0.00000   0.00000   0.00000   0.00000   0.00000
           D4           0.00000   0.00000   0.00000   0.00000   0.00000
                          A1        A2        A3        A4        A5
           A1           0.25003
           A2          -0.00028   0.25016
           A3           0.00025   0.00011   0.24964
           A4           0.00040  -0.00131   0.00091   0.25301
           A5          -0.00002   0.00067  -0.00065  -0.00078   0.24993
           A6          -0.00038   0.00064  -0.00026  -0.00224   0.00085
           D1           0.00000   0.00000   0.00000   0.00000   0.00000
           D2           0.00000   0.00000   0.00000   0.00000   0.00000
           D3           0.00000   0.00000   0.00000   0.00000   0.00000
           D4           0.00000   0.00000   0.00000   0.00000   0.00000
                          A6        D1        D2        D3        D4
           A6           0.25139
           D1           0.00000   0.02969
           D2           0.00000   0.00000   0.02969
           D3           0.00000   0.00000   0.00000   0.02969
           D4           0.00000   0.00000   0.00000   0.00000   0.02969
 ITU=  0  1  0
 Use linear search instead of GDIIS.
     Eigenvalues ---    0.02969   0.02969   0.02969   0.10311   0.16697
     Eigenvalues ---    0.17149   0.24926   0.25000   0.25000   0.25504
     Eigenvalues ---    0.59032   0.63654
 RFO step:  Lambda=-1.07318774D-02 EMin= 2.96890367D-02
 Quartic linear search produced a step of  0.71255.
 Iteration  1 RMS(Cart)=  0.08641695 RMS(Int)=  0.04957918
 Iteration  2 RMS(Cart)=  0.04752693 RMS(Int)=  0.00005672
 Iteration  3 RMS(Cart)=  0.00007907 RMS(Int)=  0.00000001
 Iteration  4 RMS(Cart)=  0.00000001 RMS(Int)=  0.00000000
 ITry= 1 IFail=0 DXMaxC= 2.74D-01 DCOld= 1.00D+10 DXMaxT= 5.05D-01 DXLimC= 3.00D+00 Rises=F
 Variable       Old X    -DE/DX   Delta X   Delta X   Delta X     New X
                                 (Linear)    (Quad)   (Total)
    R1        2.45148   0.01836  -0.03249   0.08426   0.05177   2.50325
    R2        2.73613  -0.08462  -0.24964  -0.08033  -0.32998   2.40615
    R3        2.75512  -0.08256  -0.24506  -0.07740  -0.32247   2.43266
    R4        2.43512   0.00886  -0.03764   0.06681   0.02917   2.46429
    R5        2.74964  -0.07456  -0.23420  -0.03355  -0.26776   2.48189
    A1        2.16859   0.00305   0.01090  -0.00431   0.00659   2.17518
    A2        2.10902   0.00571   0.00287   0.02741   0.03028   2.13930
    A3        2.00557  -0.00876  -0.01377  -0.02310  -0.03687   1.96870
    A4        2.19846   0.00325   0.04215  -0.05949  -0.01734   2.18113
    A5        2.13914  -0.00668  -0.02813   0.01390  -0.01424   2.12491
    A6        1.94558   0.00343  -0.01402   0.04559   0.03157   1.97715
    D1        3.14155   0.00000   0.00000   0.00005   0.00005  -3.14159
    D2       -0.00012   0.00000   0.00000   0.00011   0.00011  -0.00001
    D3        0.00007   0.00000   0.00000  -0.00006  -0.00007   0.00001
    D4       -3.14159   0.00000   0.00000   0.00000   0.00000  -3.14159
         Item               Value     Threshold  Converged?
 Maximum Force            0.084617     0.000450     NO 
 RMS     Force            0.036640     0.000300     NO 
 Maximum Displacement     0.273955     0.001800     NO 
 RMS     Displacement     0.131612     0.001200     NO 
 Predicted change in Energy=-6.080012D-02
 Lowest energy point so far.  Saving SCF results.
[...]
     0                                      11        7                         8             754        19           19             
     0                                      71        5                         8             619        85           09             
 
                                            XX        X                                         X        X            X              
                                             X        X                                                                              
                                             X        X                                                                              
                                             X        X                                                                              
                                             X        X                                                                              
                                             X        X                                                                              
                                             X        X                                                                              
                                             X        X                                                                              
                                             X        X                                                                              
                                             X        X                                                                              
                                             X        X                                                                              
                                             X        X                                                                              
                                             X        X                                                                              
                                             X        X                                                                              
                                             X        X                                                                              
                                             X        X                                                                              
                                             X        X                                                                              
                                             X        X                                                                              
                                             X                                                                                       
                                             X                                                                                       
 
 -------------------------------------------------------------------
 Center     Atomic                   Forces (Hartrees/Bohr)
 Number     Number              X              Y              Z
 -------------------------------------------------------------------
      1        6          -0.000048409   -0.000068916   -0.000020493
      2        6          -0.000051901   -0.000038848    0.000068502
      3        9          -0.000049287   -0.000025951    0.000077423
      4        9           0.000094677    0.000112737   -0.000005859
      5        9           0.000008900   -0.000016347   -0.000071050
      6        9           0.000046020    0.000037326   -0.000048523
 -------------------------------------------------------------------
 Cartesian Forces:  Max     0.000112737 RMS     0.000056996
 Force constants in Cartesian coordinates: 
                1             2             3             4             5 
      1  0.471651D+00
      2  0.355216D+00  0.503269D+00
      3 -0.232383D+00 -0.511766D-01  0.712274D+00
      4 -0.249600D+00 -0.175440D+00  0.199638D+00  0.471646D+00
      5 -0.175453D+00 -0.189729D+00  0.159424D+00  0.355222D+00  0.503296D+00
      6  0.199587D+00  0.159369D+00 -0.251135D+00 -0.232409D+00 -0.510275D-01
      7 -0.616687D-01 -0.148778D-01  0.559208D-01  0.362053D-02  0.101644D-01
      8 -0.101417D-01 -0.620937D-01 -0.496275D-01 -0.118809D-02  0.453637D-02
      9  0.688209D-01 -0.343184D-01 -0.347788D+00 -0.964564D-02 -0.249803D-01
     10 -0.153570D+00 -0.152152D+00 -0.210001D-01 -0.103875D-01 -0.228264D-01
     11 -0.156877D+00 -0.234171D+00 -0.438813D-01 -0.114780D-01 -0.217294D-01
     12 -0.338571D-01 -0.591421D-01 -0.835044D-01  0.748483D-02  0.102370D-01
     13  0.363194D-02  0.102003D-01  0.212601D-01 -0.617687D-01 -0.149083D-01
     14 -0.114941D-02  0.456978D-02  0.117625D-01 -0.101837D-01 -0.620422D-01
     15 -0.965455D-02 -0.249317D-01 -0.350667D-01  0.690675D-01 -0.341175D-01
     16 -0.104440D-01 -0.229473D-01 -0.234357D-01 -0.153510D+00 -0.152199D+00
     17 -0.115950D-01 -0.218452D-01 -0.265010D-01 -0.156933D+00 -0.234332D+00
     18  0.748603D-02  0.101995D-01  0.521983D-02 -0.341351D-01 -0.595357D-01
                6             7             8             9            10 
      6  0.712710D+00
      7  0.212841D-01  0.494265D-01
      8  0.117258D-01  0.156485D-01  0.666191D-01
      9 -0.352190D-01 -0.568511D-01  0.800545D-01  0.420476D+00
     10 -0.234141D-01  0.712640D-02 -0.286195D-02 -0.165860D-01  0.160155D+00
     11 -0.264372D-01 -0.657656D-02 -0.152689D-01 -0.323296D-01  0.186775D+00
     12  0.528783D-02 -0.267062D-01 -0.443410D-01 -0.300379D-01  0.514823D-01
     13  0.562003D-01  0.312532D-02 -0.638413D-02  0.711193D-02 -0.161826D-02
     14 -0.493924D-01 -0.639168D-02  0.265738D-02 -0.125800D-02  0.492652D-02
     15 -0.347995D+00  0.709139D-02 -0.128176D-02 -0.157135D-01  0.716829D-02
     16 -0.212484D-01 -0.163006D-02  0.492745D-02  0.714992D-02 -0.170512D-02
     17 -0.442381D-01  0.203313D-02  0.354978D-02  0.128318D-01 -0.138611D-01
     18 -0.836490D-01 -0.738916D-03  0.346996D-02  0.828213D-02  0.234973D-02
               11            12            13            14            15 
     11  0.274027D+00
     12  0.916114D-01  0.101800D+00
     13  0.201009D-02 -0.776424D-03  0.494561D-01
     14  0.354679D-02  0.341138D-02  0.155875D-01  0.664516D-01
     15  0.128410D-01  0.826217D-02 -0.571282D-01  0.798124D-01  0.420667D+00
     16 -0.138531D-01  0.237264D-02  0.717360D-02 -0.278919D-02 -0.165444D-01
     17 -0.640473D-02 -0.177679D-02 -0.650541D-02 -0.151833D-01 -0.323224D-01
     18 -0.180432D-02 -0.180731D-02 -0.266677D-01 -0.443359D-01 -0.301536D-01
               16            17            18 
     16  0.160116D+00
     17  0.186861D+00  0.274215D+00
     18  0.517059D-01  0.920065D-01  0.102108D+00
 FormGI is forming the generalized inverse of G from B-inverse, IUseBI=4.
 Force constants in internal coordinates: 
                1             2             3             4             5 
      1  0.648825D+00
      2  0.213221D-01  0.444578D+00
      3  0.212222D-01  0.467352D-01  0.444037D+00
      4  0.212719D-01  0.164660D-01  0.172778D-01  0.444735D+00
      5  0.213138D-01  0.172796D-01  0.164540D-01  0.467355D-01  0.444485D+00
      6  0.101657D-01  0.295682D-01 -0.430676D-01  0.111717D-01 -0.103621D-01
      7  0.989091D-02 -0.431520D-01  0.293795D-01 -0.103429D-01  0.111818D-01
      8 -0.200566D-01  0.135838D-01  0.136881D-01 -0.828823D-03 -0.819650D-03
      9  0.992522D-02  0.111850D-01 -0.103416D-01  0.294580D-01 -0.431378D-01
     10  0.101439D-01 -0.103567D-01  0.111646D-01 -0.430901D-01  0.295557D-01
     11 -0.200692D-01 -0.828308D-03 -0.823063D-03  0.136321D-01  0.135821D-01
     12  0.102625D-05  0.319582D-05  0.216457D-05 -0.207100D-05 -0.123109D-05
     13  0.203130D-05  0.281520D-05  0.172993D-05 -0.240729D-05 -0.205641D-05
     14 -0.205748D-05  0.000000D+00  0.000000D+00  0.000000D+00  0.000000D+00
     15 -0.105242D-05  0.000000D+00  0.000000D+00 -0.105474D-05  0.000000D+00
                6             7             8             9            10 
      6  0.129684D+00
      7 -0.480054D-01  0.129422D+00
      8 -0.816786D-01 -0.814163D-01  0.163095D+00
      9  0.137329D-01 -0.107323D-01 -0.300061D-02  0.129485D+00
     10 -0.106263D-01  0.137167D-01 -0.309043D-02 -0.480386D-01  0.129683D+00
     11 -0.310661D-02 -0.298442D-02  0.609103D-02 -0.814468D-01 -0.816444D-01
     12  0.169948D-05  0.000000D+00  0.000000D+00  0.000000D+00  0.000000D+00
     13  0.144386D-05 -0.109852D-05  0.000000D+00 -0.111077D-05  0.155237D-05
     14  0.126174D-05 -0.273122D-05  0.000000D+00  0.000000D+00  0.000000D+00
     15  0.100612D-05 -0.305679D-05  0.000000D+00 -0.128385D-05  0.145621D-05
               11            12            13            14            15 
     11  0.163091D+00
     12  0.000000D+00  0.405592D-01
     13  0.000000D+00  0.775100D-02  0.250845D-01
     14  0.000000D+00  0.773819D-02 -0.957256D-02  0.250283D-01
     15  0.000000D+00 -0.250700D-01  0.776095D-02  0.771759D-02  0.405486D-01
 Leave Link  716 at Thu Jun 13 10:45:26 2024, MaxMem=  1073741824 cpu:         0.5
 (Enter /apps/z_install_tree/linux-rocky8-ivybridge/gcc-12.2.0/gaussian-09-D.01-wczn3gur5lpur3omlkzwa2l5ecyxp5ef/g09/l103.exe)

 GradGradGradGradGradGradGradGradGradGradGradGradGradGradGradGradGradGrad
 Berny optimization.
 Red2BG is reusing G-inverse.
 Internal  Forces:  Max     0.000142055 RMS     0.000076754
 Search for a local minimum.
 Step number   1 out of a maximum of    2
 All quantities printed in internal units (Hartrees-Bohrs-Radians)
 Second derivative matrix not updated -- analytic derivatives used.
 The second derivative matrix:
                          R1        R2        R3        R4        R5
           R1           0.64883
           R2           0.02132   0.44458
           R3           0.02122   0.04674   0.44404
           R4           0.02127   0.01647   0.01728   0.44474
           R5           0.02131   0.01728   0.01645   0.04674   0.44449
           A1           0.01017   0.02957  -0.04307   0.01117  -0.01036
           A2           0.00989  -0.04315   0.02938  -0.01034   0.01118
           A3          -0.02006   0.01358   0.01369  -0.00083  -0.00082
           A4           0.00993   0.01118  -0.01034   0.02946  -0.04314
           A5           0.01014  -0.01036   0.01116  -0.04309   0.02956
           A6          -0.02007  -0.00083  -0.00082   0.01363   0.01358
           D1           0.00000   0.00000   0.00000   0.00000   0.00000
           D2           0.00000   0.00000   0.00000   0.00000   0.00000
           D3           0.00000   0.00000   0.00000   0.00000   0.00000
           D4           0.00000   0.00000   0.00000   0.00000   0.00000
                          A1        A2        A3        A4        A5
           A1           0.12968
           A2          -0.04801   0.12942
           A3          -0.08168  -0.08142   0.16309
           A4           0.01373  -0.01073  -0.00300   0.12949
           A5          -0.01063   0.01372  -0.00309  -0.04804   0.12968
           A6          -0.00311  -0.00298   0.00609  -0.08145  -0.08164
           D1           0.00000   0.00000   0.00000   0.00000   0.00000
           D2           0.00000   0.00000   0.00000   0.00000   0.00000
           D3           0.00000   0.00000   0.00000   0.00000   0.00000
           D4           0.00000   0.00000   0.00000   0.00000   0.00000
                          A6        D1        D2        D3        D4
           A6           0.16309
           D1           0.00000   0.04056
           D2           0.00000   0.00775   0.02508
           D3           0.00000   0.00774  -0.00957   0.02503
           D4           0.00000  -0.02507   0.00776   0.00772   0.04055
 ITU=  0
     Eigenvalues ---    0.03097   0.03463   0.06562   0.14298   0.16396
     Eigenvalues ---    0.23272   0.24830   0.40875   0.43494   0.46024
     Eigenvalues ---    0.51544   0.66380
 Angle between quadratic step and forces=  26.73 degrees.
 Linear search not attempted -- first point.
 Iteration  1 RMS(Cart)=  0.00083391 RMS(Int)=  0.00000034
 Iteration  2 RMS(Cart)=  0.00000034 RMS(Int)=  0.00000000
 ITry= 1 IFail=0 DXMaxC= 1.30D-03 DCOld= 1.00D+10 DXMaxT= 3.00D-01 DXLimC= 3.00D+00 Rises=F
 Variable       Old X    -DE/DX   Delta X   Delta X   Delta X     New X
                                 (Linear)    (Quad)   (Total)
    R1        2.49606   0.00002   0.00000   0.00002   0.00002   2.49608
    R2        2.49427   0.00008   0.00000   0.00008   0.00008   2.49435
    R3        2.49457  -0.00014   0.00000  -0.00023  -0.00023   2.49434
    R4        2.49411   0.00007   0.00000   0.00024   0.00024   2.49435
    R5        2.49433   0.00004   0.00000   0.00001   0.00001   2.49434
    A1        2.15200   0.00014   0.00000   0.00079   0.00079   2.15279
    A2        2.15357  -0.00014   0.00000  -0.00079  -0.00079   2.15278
    A3        1.97761  -0.00001   0.00000   0.00000   0.00000   1.97761
    A4        2.15331  -0.00005   0.00000  -0.00051  -0.00051   2.15279
    A5        2.15204   0.00011   0.00000   0.00074   0.00074   2.15278
    A6        1.97784  -0.00005   0.00000  -0.00023  -0.00023   1.97761
    D1        3.14156   0.00000   0.00000   0.00003   0.00003  -3.14159
    D2       -0.00001   0.00000   0.00000   0.00001   0.00001   0.00000
    D3        0.00001   0.00000   0.00000  -0.00001  -0.00001   0.00000
    D4       -3.14156   0.00000   0.00000  -0.00003  -0.00003  -3.14159
         Item               Value     Threshold  Converged?
 Maximum Force            0.000142     0.000450     YES
 RMS     Force            0.000077     0.000300     YES
 Maximum Displacement     0.001300     0.001800     YES
 RMS     Displacement     0.000834     0.001200     YES
 Predicted change in Energy=-1.991806D-07
 Optimization completed.
    -- Stationary point found.
                           ----------------------------
                           !   Optimized Parameters   !
                           ! (Angstroms and Degrees)  !
 --------------------------                            --------------------------
 ! Name  Definition              Value          Derivative Info.                !
 --------------------------------------------------------------------------------
 ! R1    R(1,2)                  1.3209         -DE/DX =    0.0                 !
 ! R2    R(1,3)                  1.3199         -DE/DX =    0.0001              !
 ! R3    R(1,4)                  1.3201         -DE/DX =   -0.0001              !
 ! R4    R(2,5)                  1.3198         -DE/DX =    0.0001              !
 ! R5    R(2,6)                  1.3199         -DE/DX =    0.0                 !
 ! A1    A(2,1,3)              123.3005         -DE/DX =    0.0001              !
 ! A2    A(2,1,4)              123.3907         -DE/DX =   -0.0001              !
 ! A3    A(3,1,4)              113.3088         -DE/DX =    0.0                 !
 ! A4    A(1,2,5)              123.3753         -DE/DX =   -0.0001              !
 ! A5    A(1,2,6)              123.3026         -DE/DX =    0.0001              !
 ! A6    A(5,2,6)              113.3221         -DE/DX =   -0.0001              !
 ! D1    D(3,1,2,5)           -180.0019         -DE/DX =    0.0                 !
 ! D2    D(3,1,2,6)             -0.0007         -DE/DX =    0.0                 !
 ! D3    D(4,1,2,5)              0.0006         -DE/DX =    0.0                 !
 ! D4    D(4,1,2,6)           -179.9983         -DE/DX =    0.0                 !
 --------------------------------------------------------------------------------
 GradGradGradGradGradGradGradGradGradGradGradGradGradGradGradGradGradGrad

 Leave Link  103 at Thu Jun 13 10:45:26 2024, MaxMem=  1073741824 cpu:         0.6
 (Enter /apps/z_install_tree/linux-rocky8-ivybridge/gcc-12.2.0/gaussian-09-D.01-wczn3gur5lpur3omlkzwa2l5ecyxp5ef/g09/l9999.exe)
 1\1\GINC-K023\Freq\RB3LYP\Gen\C2F4\Z5112331\13-Jun-2024\0\\#P Geom=All
 Check Guess=TCheck SCRF=Check GenChk RB3LYP/ChkBas Freq\\tetrafluoroet
 hene\\0,1\C,49.8312888416,35.7127046067,32.6329897802\C,50.6439286826,
 36.385308872,31.8380799389\F,49.6724329455,35.9940053958,33.9127526156
 \F,49.09763145,34.6930076868,32.2273380811\F,50.8039333747,36.10529481
 34,30.5582653638\F,51.3767857055,37.4046786254,32.2455732205\\Version=
 ES64L-G09RevD.01\HF=-475.6805618\RMSD=2.047e-09\RMSF=5.700e-05\ZeroPoi
 nt=0.02139\Thermal=0.0266118\Dipole=0.0000843,-0.0001954,-0.0008407\Di
 poleDeriv=0.6433087,0.5533583,-0.1652557,0.553348,0.8674222,0.2307891,
 -0.165448,0.2306199,1.288941,0.6433775,0.5531257,-0.1656332,0.5531091,
 0.8671702,0.2306782,-0.1656683,0.2306331,1.2896669,-0.1860523,-0.08875
 96,0.1558751,-0.0450968,-0.179563,-0.1715471,0.2748555,-0.0303831,-1.0
 342901,-0.4573532,-0.4646004,0.0093098,-0.5081469,-0.6878751,-0.059356
 6,-0.1091982,-0.2000159,-0.2548009,-0.1861898,-0.0888483,0.1566106,-0.
 0452585,-0.1793427,-0.1708935,0.2753265,-0.0300014,-1.034537,-0.457091
 ,-0.4642756,0.0090934,-0.507955,-0.6878116,-0.0596701,-0.1098675,-0.20
 08525,-0.2549798\Polar=26.0323765,7.0190404,26.4831325,-4.7855061,-1.3
 202614,30.510455\PG=C01 [X(C2F4)]\NImag=0\\0.47165134,0.35521608,0.503
 26915,-0.23238260,-0.05117659,0.71227420,-0.24960023,-0.17543951,0.199
 63760,0.47164582,-0.17545284,-0.18972896,0.15942399,0.35522232,0.50329
 630,0.19958730,0.15936931,-0.25113496,-0.23240919,-0.05102746,0.712710
 47,-0.06166869,-0.01487775,0.05592076,0.00362053,0.01016441,0.02128409
 ,0.04942650,-0.01014173,-0.06209371,-0.04962754,-0.00118809,0.00453637
 ,0.01172576,0.01564846,0.06661909,0.06882093,-0.03431840,-0.34778796,-
 0.00964564,-0.02498034,-0.03521900,-0.05685111,0.08005453,0.42047621,-
 0.15357038,-0.15215173,-0.02100013,-0.01038747,-0.02282635,-0.02341414
 ,0.00712640,-0.00286195,-0.01658603,0.16015483,-0.15687713,-0.23417108
 ,-0.04388133,-0.01147801,-0.02172943,-0.02643719,-0.00657656,-0.015268
 91,-0.03232962,0.18677465,0.27402737,-0.03385711,-0.05914206,-0.083504
 44,0.00748483,0.01023700,0.00528783,-0.02670622,-0.04434095,-0.0300379
 3,0.05148229,0.09161142,0.10179968,0.00363194,0.01020026,0.02126008,-0
 .06176867,-0.01490832,0.05620029,0.00312532,-0.00638413,0.00711193,-0.
 00161826,0.00201009,-0.00077642,0.04945608,-0.00114941,0.00456978,0.01
 176251,-0.01018374,-0.06204222,-0.04939236,-0.00639168,0.00265738,-0.0
 0125800,0.00492652,0.00354679,0.00341138,0.01558750,0.06645155,-0.0096
 5455,-0.02493173,-0.03506667,0.06906753,-0.03411752,-0.34799534,0.0070
 9139,-0.00128176,-0.01571346,0.00716829,0.01284104,0.00826217,-0.05712
 822,0.07981241,0.42066685,-0.01044398,-0.02294734,-0.02343570,-0.15350
 998,-0.15219922,-0.02124835,-0.00163006,0.00492745,0.00714992,-0.00170
 512,-0.01385305,0.00237264,0.00717360,-0.00278919,-0.01654444,0.160115
 54,-0.01159498,-0.02184518,-0.02650104,-0.15693297,-0.23433206,-0.0442
 3807,0.00203313,0.00354978,0.01283183,-0.01386114,-0.00640473,-0.00177
 679,-0.00650541,-0.01518329,-0.03232244,0.18686136,0.27421549,0.007486
 03,0.01019946,0.00521983,-0.03413512,-0.05953567,-0.08364900,-0.000738
 92,0.00346996,0.00828213,0.00234973,-0.00180432,-0.00180731,-0.0266676
 6,-0.04433594,-0.03015356,0.05170593,0.09200651,0.10210791\\0.00004841
 ,0.00006892,0.00002049,0.00005190,0.00003885,-0.00006850,0.00004929,0.
 00002595,-0.00007742,-0.00009468,-0.00011274,0.00000586,-0.00000890,0.
 00001635,0.00007105,-0.00004602,-0.00003733,0.00004852\\\@


 WE SHOULD BE CAREFUL TO GET OUT OF AN EXPERIENCE ONLY THE WISDOM
 THAT IS IN IT -- AND STOP THERE;
 LEST WE BE LIKE THE CAT THAT SITS DOWN ON A HOT STOVE-LID.
 SHE WILL NEVER SIT DOWN ON A HOT STOVE LID AGAIN;
 BUT ALSO SHE WILL NEVER SIT DOWN ON A COLD ONE ANY MORE.

                                                     -- MARK TWAIN
 Job cpu time:       0 days  0 hours  5 minutes 27.4 seconds.
 File lengths (MBytes):  RWF=    132 Int=      0 D2E=      0 Chk=      4 Scr=      2
 Normal termination of Gaussian 09 at Thu Jun 13 10:45:27 2024.
